
                                 *****************
                                 * O   R   C   A *
                                 *****************

                                            #,                                       
                                            ###                                      
                                            ####                                     
                                            #####                                    
                                            ######                                   
                                           ########,                                 
                                     ,,################,,,,,                         
                               ,,#################################,,                 
                          ,,##########################################,,             
                       ,#########################################, ''#####,          
                    ,#############################################,,   '####,        
                  ,##################################################,,,,####,       
                ,###########''''           ''''###############################       
              ,#####''   ,,,,##########,,,,          '''####'''          '####       
            ,##' ,,,,###########################,,,                        '##       
           ' ,,###''''                  '''############,,,                           
         ,,##''                                '''############,,,,        ,,,,,,###''
      ,#''                                            '''#######################'''  
     '                                                          ''''####''''         
             ,#######,   #######,   ,#######,      ##                                
            ,#'     '#,  ##    ##  ,#'     '#,    #''#        ######   ,####,        
            ##       ##  ##   ,#'  ##            #'  '#       #        #'  '#        
            ##       ##  #######   ##           ,######,      #####,   #    #        
            '#,     ,#'  ##    ##  '#,     ,#' ,#      #,         ##   #,  ,#        
             '#######'   ##     ##  '#######'  #'      '#     #####' # '####'        



                  #######################################################
                  #                        -***-                        #
                  #          Department of theory and spectroscopy      #
                  #    Directorship and core code : Frank Neese         #
                  #        Max Planck Institute fuer Kohlenforschung    #
                  #                Kaiser Wilhelm Platz 1               #
                  #                 D-45470 Muelheim/Ruhr               #
                  #                      Germany                        #
                  #                                                     #
                  #                  All rights reserved                #
                  #                        -***-                        #
                  #######################################################


                         Program Version 5.0.3 -  RELEASE  -


 With contributions from (in alphabetic order):
   Daniel Aravena         : Magnetic Suceptibility
   Michael Atanasov       : Ab Initio Ligand Field Theory (pilot matlab implementation)
   Alexander A. Auer      : GIAO ZORA, VPT2 properties, NMR spectrum
   Ute Becker             : Parallelization
   Giovanni Bistoni       : ED, misc. LED, open-shell LED, HFLD
   Martin Brehm           : Molecular dynamics
   Dmytro Bykov           : SCF Hessian
   Vijay G. Chilkuri      : MRCI spin determinant printing, contributions to CSF-ICE
   Dipayan Datta          : RHF DLPNO-CCSD density
   Achintya Kumar Dutta   : EOM-CC, STEOM-CC
   Dmitry Ganyushin       : Spin-Orbit,Spin-Spin,Magnetic field MRCI
   Miquel Garcia          : C-PCM and meta-GGA Hessian, CC/C-PCM, Gaussian charge scheme
   Yang Guo               : DLPNO-NEVPT2, F12-NEVPT2, CIM, IAO-localization
   Andreas Hansen         : Spin unrestricted coupled pair/coupled cluster methods
   Benjamin Helmich-Paris : MC-RPA, TRAH-SCF, COSX integrals
   Lee Huntington         : MR-EOM, pCC
   Robert Izsak           : Overlap fitted RIJCOSX, COSX-SCS-MP3, EOM
   Marcus Kettner         : VPT2
   Christian Kollmar      : KDIIS, OOCD, Brueckner-CCSD(T), CCSD density, CASPT2, CASPT2-K
   Simone Kossmann        : Meta GGA functionals, TD-DFT gradient, OOMP2, MP2 Hessian
   Martin Krupicka        : Initial AUTO-CI
   Lucas Lang             : DCDCAS
   Marvin Lechner         : AUTO-CI (C++ implementation), FIC-MRCC
   Dagmar Lenk            : GEPOL surface, SMD
   Dimitrios Liakos       : Extrapolation schemes; Compound Job, initial MDCI parallelization
   Dimitrios Manganas     : Further ROCIS development; embedding schemes
   Dimitrios Pantazis     : SARC Basis sets
   Anastasios Papadopoulos: AUTO-CI, single reference methods and gradients
   Taras Petrenko         : DFT Hessian,TD-DFT gradient, ASA, ECA, R-Raman, ABS, FL, XAS/XES, NRVS
   Peter Pinski           : DLPNO-MP2, DLPNO-MP2 Gradient
   Christoph Reimann      : Effective Core Potentials
   Marius Retegan         : Local ZFS, SOC
   Christoph Riplinger    : Optimizer, TS searches, QM/MM, DLPNO-CCSD(T), (RO)-DLPNO pert. Triples
   Tobias Risthaus        : Range-separated hybrids, TD-DFT gradient, RPA, STAB
   Michael Roemelt        : Original ROCIS implementation
   Masaaki Saitow         : Open-shell DLPNO-CCSD energy and density
   Barbara Sandhoefer     : DKH picture change effects
   Avijit Sen             : IP-ROCIS
   Kantharuban Sivalingam : CASSCF convergence, NEVPT2, FIC-MRCI
   Bernardo de Souza      : ESD, SOC TD-DFT
   Georgi Stoychev        : AutoAux, RI-MP2 NMR, DLPNO-MP2 response
   Willem Van den Heuvel  : Paramagnetic NMR
   Boris Wezisla          : Elementary symmetry handling
   Frank Wennmohs         : Technical directorship


 We gratefully acknowledge several colleagues who have allowed us to
 interface, adapt or use parts of their codes:
   Stefan Grimme, W. Hujo, H. Kruse, P. Pracht,  : VdW corrections, initial TS optimization,
                  C. Bannwarth, S. Ehlert          DFT functionals, gCP, sTDA/sTD-DF
   Ed Valeev, F. Pavosevic, A. Kumar             : LibInt (2-el integral package), F12 methods
   Garnet Chan, S. Sharma, J. Yang, R. Olivares  : DMRG
   Ulf Ekstrom                                   : XCFun DFT Library
   Mihaly Kallay                                 : mrcc  (arbitrary order and MRCC methods)
   Jiri Pittner, Ondrej Demel                    : Mk-CCSD
   Frank Weinhold                                : gennbo (NPA and NBO analysis)
   Christopher J. Cramer and Donald G. Truhlar   : smd solvation model
   Lars Goerigk                                  : TD-DFT with DH, B97 family of functionals
   V. Asgeirsson, H. Jonsson                     : NEB implementation
   FAccTs GmbH                                   : IRC, NEB, NEB-TS, DLPNO-Multilevel, CI-OPT
                                                   MM, QMMM, 2- and 3-layer-ONIOM, Crystal-QMMM,
                                                   LR-CPCM, SF, NACMEs, symmetry and pop. for TD-DFT,
                                                   nearIR, NL-DFT gradient (VV10), updates on ESD,
                                                   ML-optimized integration grids
   S Lehtola, MJT Oliveira, MAL Marques          : LibXC Library
   Liviu Ungur et al                             : ANISO software


 Your calculation uses the libint2 library for the computation of 2-el integrals
 For citations please refer to: http://libint.valeyev.net

 Your ORCA version has been built with support for libXC version: 5.1.0
 For citations please refer to: https://tddft.org/programs/libxc/

 This ORCA versions uses:
   CBLAS   interface :  Fast vector & matrix operations
   LAPACKE interface :  Fast linear algebra routines
   SCALAPACK package :  Parallel linear algebra routines
   Shared memory     :  Shared parallel matrices
   BLAS/LAPACK       :  OpenBLAS 0.3.15  USE64BITINT DYNAMIC_ARCH NO_AFFINITY SkylakeX SINGLE_THREADED
        Core in use  :  SkylakeX
   Copyright (c) 2011-2014, The OpenBLAS Project




***************************************
The coordinates will be read from file: /gpfs/fs0/scratch/a/aspuru/malcolms/aiida/d9/46/e501-2dba-42de-8e45-93d2695210eb/orca_freq.xyz
***************************************


Your calculation utilizes the atom-pairwise dispersion correction
with the Becke-Johnson damping scheme (D3BJ)
Cite in your paper:
S.Grimme, S.Ehrlich, L.Goerigk, J Comput Chem, (2011), 32, 1456–1465 
S.Grimme, J.Antony, S.Ehrlich and H.Krieg, J.Chem.Phys., 132, (2010), 154104 
   

================================================================================

----- Orbital basis set information -----
Your calculation utilizes the basis: def2-SVP
   F. Weigend and R. Ahlrichs, Phys. Chem. Chem. Phys. 7, 3297 (2005).

----- AuxJ basis set information -----
Your calculation utilizes the auxiliary basis: def2/J
   F. Weigend, Phys. Chem. Chem. Phys. 8, 1057 (2006).

================================================================================
                                        WARNINGS
                       Please study these warnings very carefully!
================================================================================

INFO   : Checking CIS options ...

WARNING: CIS/ROCIS methods need fully converged wavefunctions
  ===> : Setting SCFConvForced true
         You can overwrite this default with %scf ConvForced false 


INFO   : the flag for use of the SHARK integral package has been found!

================================================================================
                                       INPUT FILE
================================================================================
NAME = S0_TDA_SP.inp
|  1> ! PBE0 def2-SVP D3BJ def2/J RIJCOSX tightSCF noautostart miniprint nopop defgrid3
|  2> ! EnGrad
|  3> %maxcore    4000
|  4> %pal    nprocs  20  end
|  5> %tddft  PrintLevel  3
|  6> 	TDA	True
|  7> 	ETF	True
|  8> 	NACME	True
|  9> 	SGradList	0, 1, 2, 3
| 10> 	NRoots	5
| 11> 	IRoot	1
| 12>         MaxDim  10
| 13> end
| 14> * xyzfile 0 1 /gpfs/fs0/scratch/a/aspuru/malcolms/aiida/d9/46/e501-2dba-42de-8e45-93d2695210eb/orca_freq.xyz
| 15> 
| 16> 
| 17>                          ****END OF INPUT****
================================================================================

                     *******************************
                     * Energy+Gradient Calculation *
                     *******************************

---------------------------------
CARTESIAN COORDINATES (ANGSTROEM)
---------------------------------
  C      0.000158    0.110982   -1.453601
  C      0.000008   -0.092670    0.065836
  C      0.000082    1.257612    0.791913
  C     -1.176175   -0.951331    0.505164
  C     -2.526427   -0.689646    0.371948
  C     -3.476024   -1.617155    0.849057
  C     -4.915099   -1.407736    0.741859
  C     -5.540925   -0.356901    0.173069
  C     -6.981133   -0.148413    0.070832
  C     -7.934236   -1.030385    0.613118
  C     -9.293185   -0.783372    0.495010
  C     -9.751137    0.351708   -0.186804
  N    -11.131805    0.597653   -0.310672
  C    -11.784709    1.766046    0.066444
  C    -11.269270    2.916844    0.666632
  C    -12.158631    3.944804    0.962792
  C    -13.528622    3.834845    0.677019
  C    -14.038988    2.680803    0.094063
  C    -13.166989    1.632340   -0.213894
  C    -13.349003    0.318364   -0.788159
  C    -14.459830   -0.377754   -1.273921
  C    -14.282003   -1.653559   -1.796307
  C    -13.004538   -2.233451   -1.845665
  C    -11.882604   -1.562910   -1.369107
  C    -12.069265   -0.287992   -0.830553
  C     -8.820576    1.236572   -0.737877
  C     -7.460538    0.990058   -0.599238
  C     -3.010039   -2.799221    1.457605
  C     -1.653149   -3.069814    1.595166
  C     -0.729340   -2.141193    1.116064
  C      0.728758   -2.141403    1.116069
  C      1.652297   -3.070270    1.595219
  C      3.009269   -2.799999    1.457821
  C      3.475593   -1.617983    0.849444
  C      4.914728   -1.408868    0.742350
  C      5.540748   -0.359673    0.170748
  C      6.980992   -0.151191    0.068988
  C      7.460757    0.982797   -0.608394
  C      8.820873    1.228957   -0.746916
  C      9.751072    0.348372   -0.188450
  N     11.131809    0.594130   -0.312086
  C     11.783693    1.765183    0.058417
  C     11.267011    2.919328    0.651057
  C     12.155522    3.949566    0.941800
  C     13.525852    3.838628    0.658030
  C     14.037431    2.681359    0.082576
  C     13.166308    1.630550   -0.219824
  C     13.349572    0.313184   -0.785886
  C     14.461212   -0.385307   -1.266355
  C     14.284545   -1.664408   -1.781023
  C     13.007446   -2.245316   -1.827916
  C     11.884720   -1.572479   -1.356486
  C     12.070207   -0.294139   -0.825712
  C      9.292751   -0.782067    0.500772
  C      7.933748   -1.028789    0.618932
  C      2.526269   -0.690120    0.372477
  C      1.175939   -0.951601    0.505308
  H      0.890132    0.676410   -1.770610
  H     -0.889661    0.676558   -1.770781
  H      0.000126   -0.854425   -1.980110
  H     -0.889720    1.846224    0.519777
  H      0.890074    1.846033    0.519983
  H     -0.000059    1.117905    1.882653
  H     -2.858307    0.237726   -0.101034
  H     -5.523378   -2.208033    1.176027
  H     -4.935142    0.439532   -0.271126
  H     -7.608137   -1.919845    1.155655
  H    -10.018642   -1.464093    0.944725
  H    -10.207711    3.005749    0.902447
  H    -11.779516    4.855901    1.431771
  H    -14.197933    4.662383    0.921586
  H    -15.106940    2.590018   -0.117883
  H    -15.452047    0.078775   -1.246097
  H    -15.140901   -2.209521   -2.178150
  H    -12.884685   -3.232715   -2.270951
  H    -10.891478   -2.016041   -1.422192
  H     -9.172132    2.113260   -1.285152
  H     -6.743270    1.690114   -1.035722
  H     -3.742746   -3.520165    1.829777
  H     -1.322788   -3.995702    2.071757
  H      1.321657   -3.996093    2.071746
  H      3.741761   -3.521168    1.829977
  H      5.522874   -2.208004    1.178843
  H      4.935106    0.435015   -0.276754
  H      6.743756    1.679434   -1.050743
  H      9.172806    2.102006   -1.299746
  H     10.205159    3.009068    0.885252
  H     11.775460    4.863296    1.404852
  H     14.194461    4.668015    0.898217
  H     15.105632    2.589894   -0.127813
  H     15.453158    0.071924   -1.240435
  H     15.144086   -2.222237   -2.158672
  H     12.888530   -3.247262   -2.247110
  H     10.893888   -2.026490   -1.407578
  H     10.017943   -1.459173    0.956341
  H      7.607246   -1.914193    1.167829
  H      2.858438    0.237494   -0.099827

----------------------------
CARTESIAN COORDINATES (A.U.)
----------------------------
  NO LB      ZA    FRAG     MASS         X           Y           Z
   0 C     6.0000    0    12.011    0.000298    0.209725   -2.746907
   1 C     6.0000    0    12.011    0.000014   -0.175122    0.124413
   2 C     6.0000    0    12.011    0.000156    2.376542    1.496498
   3 C     6.0000    0    12.011   -2.222648   -1.797756    0.954621
   4 C     6.0000    0    12.011   -4.774256   -1.303241    0.702879
   5 C     6.0000    0    12.011   -6.568733   -3.055980    1.604486
   6 C     6.0000    0    12.011   -9.288190   -2.660236    1.401910
   7 C     6.0000    0    12.011  -10.470831   -0.674445    0.327052
   8 C     6.0000    0    12.011  -13.192429   -0.280460    0.133853
   9 C     6.0000    0    12.011  -14.993534   -1.947146    1.158625
  10 C     6.0000    0    12.011  -17.561575   -1.480358    0.935433
  11 C     6.0000    0    12.011  -18.426978    0.664632   -0.353009
  12 N     7.0000    0    14.007  -21.036063    1.129400   -0.587086
  13 C     6.0000    0    12.011  -22.269873    3.337344    0.125561
  14 C     6.0000    0    12.011  -21.295835    5.512037    1.259752
  15 C     6.0000    0    12.011  -22.976483    7.454600    1.819414
  16 C     6.0000    0    12.011  -25.565390    7.246806    1.279380
  17 C     6.0000    0    12.011  -26.529842    5.065983    0.177753
  18 C     6.0000    0    12.011  -24.882003    3.084676   -0.404200
  19 C     6.0000    0    12.011  -25.225959    0.601621   -1.489405
  20 C     6.0000    0    12.011  -27.325118   -0.713851   -2.407362
  21 C     6.0000    0    12.011  -26.989075   -3.124773   -3.394528
  22 C     6.0000    0    12.011  -24.575016   -4.220610   -3.487801
  23 C     6.0000    0    12.011  -22.454868   -2.953472   -2.587238
  24 C     6.0000    0    12.011  -22.807606   -0.544226   -1.569517
  25 C     6.0000    0    12.011  -16.668472    2.336783   -1.394385
  26 C     6.0000    0    12.011  -14.098374    1.870938   -1.132396
  27 C     6.0000    0    12.011   -5.688150   -5.289761    2.754475
  28 C     6.0000    0    12.011   -3.124000   -5.801107    3.014426
  29 C     6.0000    0    12.011   -1.378252   -4.046268    2.109055
  30 C     6.0000    0    12.011    1.377154   -4.046665    2.109066
  31 C     6.0000    0    12.011    3.122388   -5.801970    3.014527
  32 C     6.0000    0    12.011    5.686693   -5.291231    2.754883
  33 C     6.0000    0    12.011    6.567918   -3.057545    1.605217
  34 C     6.0000    0    12.011    9.287490   -2.662375    1.402839
  35 C     6.0000    0    12.011   10.470496   -0.679683    0.322666
  36 C     6.0000    0    12.011   13.192164   -0.285710    0.130369
  37 C     6.0000    0    12.011   14.098788    1.857217   -1.149699
  38 C     6.0000    0    12.011   16.669034    2.322393   -1.411467
  39 C     6.0000    0    12.011   18.426856    0.658327   -0.356118
  40 N     7.0000    0    14.007   21.036071    1.122744   -0.589757
  41 C     6.0000    0    12.011   22.267953    3.335712    0.110392
  42 C     6.0000    0    12.011   21.291565    5.516731    1.230319
  43 C     6.0000    0    12.011   22.970607    7.463598    1.779744
  44 C     6.0000    0    12.011   25.560156    7.253955    1.243496
  45 C     6.0000    0    12.011   26.526899    5.067034    0.156045
  46 C     6.0000    0    12.011   24.880717    3.081292   -0.415408
  47 C     6.0000    0    12.011   25.227036    0.591833   -1.485109
  48 C     6.0000    0    12.011   27.327730   -0.728125   -2.393063
  49 C     6.0000    0    12.011   26.993877   -3.145276   -3.365646
  50 C     6.0000    0    12.011   24.580511   -4.243032   -3.454261
  51 C     6.0000    0    12.011   22.458866   -2.971555   -2.563387
  52 C     6.0000    0    12.011   22.809385   -0.555842   -1.560369
  53 C     6.0000    0    12.011   17.560754   -1.477892    0.946323
  54 C     6.0000    0    12.011   14.992611   -1.944129    1.169611
  55 C     6.0000    0    12.011    4.773957   -1.304137    0.703880
  56 C     6.0000    0    12.011    2.222202   -1.798266    0.954893
  57 H     1.0000    0     1.008    1.682106    1.278229   -3.345968
  58 H     1.0000    0     1.008   -1.681216    1.278510   -3.346292
  59 H     1.0000    0     1.008    0.000239   -1.614628   -3.741866
  60 H     1.0000    0     1.008   -1.681327    3.488857    0.982237
  61 H     1.0000    0     1.008    1.681997    3.488496    0.982626
  62 H     1.0000    0     1.008   -0.000112    2.112535    3.557698
  63 H     1.0000    0     1.008   -5.401418    0.449237   -0.190926
  64 H     1.0000    0     1.008  -10.437671   -4.172577    2.222370
  65 H     1.0000    0     1.008   -9.326067    0.830596   -0.512353
  66 H     1.0000    0     1.008  -14.377296   -3.627982    2.183871
  67 H     1.0000    0     1.008  -18.932489   -2.766735    1.785271
  68 H     1.0000    0     1.008  -19.289778    5.680042    1.705378
  69 H     1.0000    0     1.008  -22.260059    9.176322    2.705656
  70 H     1.0000    0     1.008  -26.830205    8.810627    1.741545
  71 H     1.0000    0     1.008  -28.547978    4.894424   -0.222766
  72 H     1.0000    0     1.008  -29.200137    0.148864   -2.354782
  73 H     1.0000    0     1.008  -28.612157   -4.175389   -4.116106
  74 H     1.0000    0     1.008  -24.348525   -6.108946   -4.291475
  75 H     1.0000    0     1.008  -20.581912   -3.809765   -2.687553
  76 H     1.0000    0     1.008  -17.332817    3.993482   -2.428585
  77 H     1.0000    0     1.008  -12.742933    3.193852   -1.957231
  78 H     1.0000    0     1.008   -7.072764   -6.652147    3.457777
  79 H     1.0000    0     1.008   -2.499706   -7.550783    3.915054
  80 H     1.0000    0     1.008    2.497569   -7.551522    3.915033
  81 H     1.0000    0     1.008    7.070904   -6.654043    3.458155
  82 H     1.0000    0     1.008   10.436719   -4.172523    2.227691
  83 H     1.0000    0     1.008    9.325999    0.822059   -0.522989
  84 H     1.0000    0     1.008   12.743851    3.173671   -1.985617
  85 H     1.0000    0     1.008   17.334092    3.972216   -2.456163
  86 H     1.0000    0     1.008   19.284956    5.686314    1.672884
  87 H     1.0000    0     1.008   22.252394    9.190298    2.654785
  88 H     1.0000    0     1.008   26.823643    8.821269    1.697385
  89 H     1.0000    0     1.008   28.545507    4.894190   -0.241532
  90 H     1.0000    0     1.008   29.202237    0.135916   -2.344082
  91 H     1.0000    0     1.008   28.618175   -4.199419   -4.079299
  92 H     1.0000    0     1.008   24.355793   -6.136436   -4.246423
  93 H     1.0000    0     1.008   20.586464   -3.829511   -2.659937
  94 H     1.0000    0     1.008   18.931169   -2.757437    1.807223
  95 H     1.0000    0     1.008   14.375612   -3.617301    2.206877
  96 H     1.0000    0     1.008    5.401664    0.448798   -0.188646



           ************************************************************
           *        Program running with 20 parallel MPI-processes    *
           *              working on a common directory               *
           ************************************************************
------------------------------------------------------------------------------
                   ___                                                        
                  /   \      - P O W E R E D   B Y -                         
                 /     \                                                     
                 |  |  |   _    _      __       _____    __    __             
                 |  |  |  | |  | |    /  \     |  _  \  |  |  /  |          
                  \  \/   | |  | |   /    \    | | | |  |  | /  /          
                 / \  \   | |__| |  /  /\  \   | |_| |  |  |/  /          
                |  |  |   |  __  | /  /__\  \  |    /   |      \           
                |  |  |   | |  | | |   __   |  |    \   |  |\   \          
                \     /   | |  | | |  |  |  |  | |\  \  |  | \   \       
                 \___/    |_|  |_| |__|  |__|  |_| \__\ |__|  \__/        
                                                                              
                      - O R C A' S   B I G   F R I E N D -                    
                                      &                                       
                       - I N T E G R A L  F E E D E R -                       
                                                                              
 v1 FN, 2020, v2 2021                                                         
------------------------------------------------------------------------------


Reading SHARK input file S0_TDA_SP.SHARKINP.tmp ... ok
----------------------
SHARK INTEGRAL PACKAGE
----------------------

Number of atoms                             ...     97
Number of basis functions                   ...    998
Number of shells                            ...    462
Maximum angular momentum                    ...      2
Integral batch strategy                     ... SHARK/LIBINT Hybrid
RI-J (if used) integral strategy            ... SPLIT-RIJ (Revised 2003 algorithm where possible)
Printlevel                                  ...      1
Contraction scheme used                     ... SEGMENTED contraction
Coulomb Range Separation                    ... NOT USED
Exchange Range Separation                   ... NOT USED
Finite Nucleus Model                        ... NOT USED
Auxiliary Coulomb fitting basis             ... AVAILABLE
   # of basis functions in Aux-J            ...   3233
   # of shells in Aux-J                     ...   1055
   Maximum angular momentum in Aux-J        ...      4
Auxiliary J/K fitting basis                 ... NOT available
Auxiliary Correlation fitting basis         ... NOT available
Auxiliary 'external' fitting basis          ... NOT available
Integral threshold                          ...     2.500000e-11
Primitive cut-off                           ...     2.500000e-12
Primitive pair pre-selection threshold      ...     2.500000e-12

Calculating pre-screening integrals         ... done (  0.1 sec) Dimension = 462
Organizing shell pair data                  ... done (  0.3 sec)
Shell pair information
Total number of shell pairs                 ...    106953
Shell pairs after pre-screening             ...     35525
Total number of primitive shell pairs       ...    392031
Primitive shell pairs kept                  ...     80853
          la=0 lb=0:  10875 shell pairs
          la=1 lb=0:  13270 shell pairs
          la=1 lb=1:   4138 shell pairs
          la=2 lb=0:   4219 shell pairs
          la=2 lb=1:   2602 shell pairs
          la=2 lb=2:    421 shell pairs

Calculating one electron integrals          ... done (  0.1 sec)
Calculating RI/J V-Matrix + Cholesky decomp.... done (  0.8 sec)
Calculating Nuclear repulsion               ... done (  0.0 sec) ENN=   5902.328870050305 Eh

SHARK setup successfully completed in   2.1 seconds

Maximum memory used throughout the entire GTOINT-calculation: 64.6 MB


           ************************************************************
           *        Program running with 20 parallel MPI-processes    *
           *              working on a common directory               *
           ************************************************************

Diagonalization of the overlap matrix:
Smallest eigenvalue                        ... 2.218e-04
Time for diagonalization                   ...    0.546 sec
Threshold for overlap eigenvalues          ... 1.000e-08
Number of eigenvalues below threshold      ... 0
Time for construction of square roots      ...    0.215 sec
Total time needed                          ...    0.772 sec

Time for model grid setup =    1.355 sec

Loading Hartree-Fock densities                     ... done
Calculating cut-offs                               ... done
Initializing the effective Hamiltonian             ... done
Setting up the integral package (SHARK)            ... done
Starting the Coulomb interaction                   ... done (   0.9 sec)
Reading the grid                                   ... done
Mapping shells                                     ... done
Starting the XC term evaluation                    ... done (   0.3 sec)
  promolecular density results
     # of electrons  =    383.983795219
     EX              =   -306.355631482
     EC              =    -12.899828125
     EX+EC           =   -319.255459607
Transforming the Hamiltonian                       ... done (   0.2 sec)
Diagonalizing the Hamiltonian                      ... done (   0.4 sec)
Back transforming the eigenvectors                 ... done (   0.1 sec)
Now organizing SCF variables                       ... done
-------------------
DFT GRID GENERATION
-------------------

General Integration Accuracy     IntAcc      ... 4.959
Radial Grid Type                 RadialGrid  ... OptM3 with GC (2021)
Angular Grid (max. ang.)         AngularGrid ... 6 (Lebedev-590)
Angular grid pruning method      GridPruning ... 4 (adaptive)
Weight generation scheme         WeightScheme... Becke
Basis function cutoff            BFCut       ... 1.0000e-11
Integration weight cutoff        WCut        ... 1.0000e-14
Angular grids for H and He will be reduced by one unit
Partially contracted basis set               ... off
Rotationally invariant grid construction     ... off

Total number of grid points                  ...  1143498
Total number of batches                      ...    17916
Average number of points per batch           ...       63
Average number of grid points per atom       ...    11789
Time for grid setup =   20.885 sec

--------------------
COSX GRID GENERATION
--------------------

GRIDX 1
-------
General Integration Accuracy     IntAcc      ... 4.020
Radial Grid Type                 RadialGrid  ... OptM3 with GC (2021)
Angular Grid (max. ang.)         AngularGrid ... 2 (Lebedev-110)
Angular grid pruning method      GridPruning ... 4 (adaptive)
Weight generation scheme         WeightScheme... Becke
Basis function cutoff            BFCut       ... 1.0000e-11
Integration weight cutoff        WCut        ... 1.0000e-14
Angular grids for H and He will be reduced by one unit
Partially contracted basis set               ... on
Rotationally invariant grid construction     ... off

Total number of grid points                  ...   128340
Total number of batches                      ...     2055
Average number of points per batch           ...       62
Average number of grid points per atom       ...     1323
UseSFitting                                  ... on

GRIDX 2
-------
General Integration Accuracy     IntAcc      ... 4.338
Radial Grid Type                 RadialGrid  ... OptM3 with GC (2021)
Angular Grid (max. ang.)         AngularGrid ... 3 (Lebedev-194)
Angular grid pruning method      GridPruning ... 4 (adaptive)
Weight generation scheme         WeightScheme... Becke
Basis function cutoff            BFCut       ... 1.0000e-11
Integration weight cutoff        WCut        ... 1.0000e-14
Angular grids for H and He will be reduced by one unit
Partially contracted basis set               ... on
Rotationally invariant grid construction     ... off

Total number of grid points                  ...   280102
Total number of batches                      ...     4426
Average number of points per batch           ...       63
Average number of grid points per atom       ...     2888
UseSFitting                                  ... on

GRIDX 3
-------
General Integration Accuracy     IntAcc      ... 4.871
Radial Grid Type                 RadialGrid  ... OptM3 with GC (2021)
Angular Grid (max. ang.)         AngularGrid ... 4 (Lebedev-302)
Angular grid pruning method      GridPruning ... 4 (adaptive)
Weight generation scheme         WeightScheme... Becke
Basis function cutoff            BFCut       ... 1.0000e-11
Integration weight cutoff        WCut        ... 1.0000e-14
Angular grids for H and He will be reduced by one unit
Partially contracted basis set               ... on
Rotationally invariant grid construction     ... off

Total number of grid points                  ...   520151
Total number of batches                      ...     8183
Average number of points per batch           ...       63
Average number of grid points per atom       ...     5362
UseSFitting                                  ... on

Time for X-Grid setup             =   11.833 sec

--------------
SCF ITERATIONS
--------------
ITER       Energy         Delta-E        Max-DP      RMS-DP      [F,P]     Damp
               ***  Starting incremental Fock matrix formation  ***
  0  -2224.4610278927   0.000000000000 0.07192457  0.00102836  0.1524540 0.7000
  1  -2224.8416978401  -0.380669947404 0.04345419  0.00073492  0.0831771 0.7000
                               ***Turning on DIIS***
  2  -2225.0237354964  -0.182037656318 0.07752578  0.00141422  0.0347195 0.0000
  3  -2225.2919883082  -0.268252811768 0.03391766  0.00040762  0.0422282 0.0000
  4  -2225.3492619701  -0.057273661938 0.01011289  0.00011730  0.0105837 0.0000
                      *** Initiating the SOSCF procedure ***
                           *** Shutting down DIIS ***
                      *** Re-Reading the Fockian *** 
                      *** Removing any level shift *** 
ITER      Energy       Delta-E        Grad      Rot      Max-DP    RMS-DP
  5  -2225.35200459  -0.0027426201  0.000739  0.000739  0.003296  0.000040
               *** Restarting incremental Fock matrix formation ***
  6  -2225.35231641  -0.0003118196  0.000487  0.002916  0.001559  0.000022
  7  -2225.35233036  -0.0000139483  0.000232  0.000914  0.001048  0.000009
  8  -2225.35233937  -0.0000090087  0.000091  0.000306  0.000360  0.000005
  9  -2225.35233957  -0.0000002014  0.000098  0.000177  0.000222  0.000002
 10  -2225.35234073  -0.0000011641  0.000026  0.000088  0.000098  0.000001
 11  -2225.35234068   0.0000000500  0.000030  0.000050  0.000053  0.000001
 12  -2225.35234080  -0.0000001181  0.000008  0.000035  0.000035  0.000000
 13  -2225.35234080   0.0000000045  0.000010  0.000015  0.000024  0.000000
                  ***Gradient check signals convergence***
              ***Rediagonalizing the Fockian in SOSCF/NRSCF***

               *****************************************************
               *                     SUCCESS                       *
               *           SCF CONVERGED AFTER  14 CYCLES          *
               *****************************************************

Old exchange energy                            =    -78.034821537 Eh
New exchange energy                            =    -78.034805926 Eh
Exchange energy change after final integration =      0.000015611 Eh
Total energy after final integration           =  -2225.352325226 Eh
Final COS-X integration done in                =    54.077 sec
Total Energy       :        -2225.35232523 Eh          -60554.91532 eV
  Last Energy change         ...   -4.1163e-08  Tolerance :   1.0000e-08
  Last MAX-Density change    ...    4.8850e-15  Tolerance :   1.0000e-07
             **** THE GBW FILE WAS UPDATED (S0_TDA_SP.gbw) ****
             **** DENSITY S0_TDA_SP.scfp WAS UPDATED ****
             **** ENERGY FILE WAS UPDATED (S0_TDA_SP.en.tmp) ****
             **** THE GBW FILE WAS UPDATED (S0_TDA_SP.gbw) ****
             **** DENSITY S0_TDA_SP.scfp WAS UPDATED ****
----------------
ORBITAL ENERGIES
----------------

  NO   OCC          E(Eh)            E(eV) 
   0   2.0000     -14.448269      -393.1574 
   1   2.0000     -14.448248      -393.1568 
   2   2.0000     -10.291503      -280.0460 
   3   2.0000     -10.291494      -280.0458 
   4   2.0000     -10.276058      -279.6257 
   5   2.0000     -10.276046      -279.6254 
   6   2.0000     -10.275997      -279.6241 
   7   2.0000     -10.275985      -279.6238 
   8   2.0000     -10.264196      -279.3030 
   9   2.0000     -10.259543      -279.1764 
  10   2.0000     -10.259536      -279.1762 
  11   2.0000     -10.256066      -279.0818 
  12   2.0000     -10.256060      -279.0816 
  13   2.0000     -10.253512      -279.0122 
  14   2.0000     -10.253507      -279.0121 
  15   2.0000     -10.253059      -278.9999 
  16   2.0000     -10.253056      -278.9998 
  17   2.0000     -10.252885      -278.9952 
  18   2.0000     -10.252882      -278.9951 
  19   2.0000     -10.252603      -278.9875 
  20   2.0000     -10.252599      -278.9874 
  21   2.0000     -10.250697      -278.9356 
  22   2.0000     -10.250691      -278.9355 
  23   2.0000     -10.249786      -278.9108 
  24   2.0000     -10.249783      -278.9108 
  25   2.0000     -10.249426      -278.9011 
  26   2.0000     -10.249291      -278.8974 
  27   2.0000     -10.247987      -278.8619 
  28   2.0000     -10.247914      -278.8599 
  29   2.0000     -10.247836      -278.8578 
  30   2.0000     -10.247813      -278.8572 
  31   2.0000     -10.246948      -278.8336 
  32   2.0000     -10.246942      -278.8335 
  33   2.0000     -10.246905      -278.8325 
  34   2.0000     -10.246885      -278.8319 
  35   2.0000     -10.240040      -278.6457 
  36   2.0000     -10.240032      -278.6454 
  37   2.0000     -10.239908      -278.6421 
  38   2.0000     -10.239900      -278.6418 
  39   2.0000     -10.239639      -278.6347 
  40   2.0000     -10.239628      -278.6345 
  41   2.0000     -10.239603      -278.6338 
  42   2.0000     -10.239594      -278.6335 
  43   2.0000     -10.238781      -278.6114 
  44   2.0000     -10.238772      -278.6111 
  45   2.0000     -10.238569      -278.6056 
  46   2.0000     -10.238559      -278.6054 
  47   2.0000     -10.238494      -278.6036 
  48   2.0000     -10.238491      -278.6035 
  49   2.0000     -10.238487      -278.6034 
  50   2.0000     -10.238481      -278.6032 
  51   2.0000     -10.237962      -278.5891 
  52   2.0000     -10.237934      -278.5883 
  53   2.0000     -10.232384      -278.4373 
  54   2.0000     -10.232375      -278.4371 
  55   2.0000     -10.232374      -278.4370 
  56   2.0000     -10.232366      -278.4368 
  57   2.0000      -1.022989       -27.8369 
  58   2.0000      -1.022981       -27.8367 
  59   2.0000      -0.923895       -25.1405 
  60   2.0000      -0.901774       -24.5385 
  61   2.0000      -0.901591       -24.5335 
  62   2.0000      -0.883310       -24.0361 
  63   2.0000      -0.871254       -23.7080 
  64   2.0000      -0.869609       -23.6633 
  65   2.0000      -0.868840       -23.6423 
  66   2.0000      -0.868830       -23.6421 
  67   2.0000      -0.854436       -23.2504 
  68   2.0000      -0.828632       -22.5482 
  69   2.0000      -0.827576       -22.5195 
  70   2.0000      -0.812817       -22.1179 
  71   2.0000      -0.803302       -21.8589 
  72   2.0000      -0.791199       -21.5296 
  73   2.0000      -0.781487       -21.2654 
  74   2.0000      -0.781351       -21.2616 
  75   2.0000      -0.777261       -21.1503 
  76   2.0000      -0.769039       -20.9266 
  77   2.0000      -0.768727       -20.9181 
  78   2.0000      -0.768487       -20.9116 
  79   2.0000      -0.763837       -20.7851 
  80   2.0000      -0.755828       -20.5671 
  81   2.0000      -0.747195       -20.3322 
  82   2.0000      -0.735261       -20.0075 
  83   2.0000      -0.735250       -20.0072 
  84   2.0000      -0.731456       -19.9039 
  85   2.0000      -0.715491       -19.4695 
  86   2.0000      -0.709180       -19.2978 
  87   2.0000      -0.686887       -18.6911 
  88   2.0000      -0.670681       -18.2502 
  89   2.0000      -0.669593       -18.2206 
  90   2.0000      -0.651802       -17.7364 
  91   2.0000      -0.649544       -17.6750 
  92   2.0000      -0.647751       -17.6262 
  93   2.0000      -0.639688       -17.4068 
  94   2.0000      -0.631468       -17.1831 
  95   2.0000      -0.622954       -16.9514 
  96   2.0000      -0.622110       -16.9285 
  97   2.0000      -0.616265       -16.7694 
  98   2.0000      -0.610039       -16.6000 
  99   2.0000      -0.600826       -16.3493 
 100   2.0000      -0.597130       -16.2487 
 101   2.0000      -0.591452       -16.0942 
 102   2.0000      -0.591369       -16.0920 
 103   2.0000      -0.586903       -15.9704 
 104   2.0000      -0.578710       -15.7475 
 105   2.0000      -0.567029       -15.4296 
 106   2.0000      -0.558935       -15.2094 
 107   2.0000      -0.558416       -15.1953 
 108   2.0000      -0.536254       -14.5922 
 109   2.0000      -0.535179       -14.5630 
 110   2.0000      -0.534304       -14.5391 
 111   2.0000      -0.529438       -14.4068 
 112   2.0000      -0.525633       -14.3032 
 113   2.0000      -0.521287       -14.1849 
 114   2.0000      -0.516040       -14.0422 
 115   2.0000      -0.506765       -13.7898 
 116   2.0000      -0.505546       -13.7566 
 117   2.0000      -0.489550       -13.3213 
 118   2.0000      -0.486896       -13.2491 
 119   2.0000      -0.480800       -13.0832 
 120   2.0000      -0.480253       -13.0683 
 121   2.0000      -0.470591       -12.8054 
 122   2.0000      -0.470320       -12.7981 
 123   2.0000      -0.469149       -12.7662 
 124   2.0000      -0.468280       -12.7426 
 125   2.0000      -0.467639       -12.7251 
 126   2.0000      -0.465743       -12.6735 
 127   2.0000      -0.458792       -12.4844 
 128   2.0000      -0.457986       -12.4624 
 129   2.0000      -0.455305       -12.3895 
 130   2.0000      -0.454108       -12.3569 
 131   2.0000      -0.451355       -12.2820 
 132   2.0000      -0.451050       -12.2737 
 133   2.0000      -0.450596       -12.2614 
 134   2.0000      -0.449781       -12.2392 
 135   2.0000      -0.449266       -12.2252 
 136   2.0000      -0.445783       -12.1304 
 137   2.0000      -0.442266       -12.0347 
 138   2.0000      -0.441794       -12.0218 
 139   2.0000      -0.441786       -12.0216 
 140   2.0000      -0.438116       -11.9217 
 141   2.0000      -0.435250       -11.8438 
 142   2.0000      -0.431313       -11.7366 
 143   2.0000      -0.430765       -11.7217 
 144   2.0000      -0.415410       -11.3039 
 145   2.0000      -0.413432       -11.2501 
 146   2.0000      -0.411315       -11.1924 
 147   2.0000      -0.408828       -11.1248 
 148   2.0000      -0.406983       -11.0746 
 149   2.0000      -0.403456       -10.9786 
 150   2.0000      -0.400728       -10.9044 
 151   2.0000      -0.397010       -10.8032 
 152   2.0000      -0.388971       -10.5844 
 153   2.0000      -0.387724       -10.5505 
 154   2.0000      -0.386973       -10.5301 
 155   2.0000      -0.379703       -10.3322 
 156   2.0000      -0.379516       -10.3271 
 157   2.0000      -0.378285       -10.2937 
 158   2.0000      -0.378231       -10.2922 
 159   2.0000      -0.373897       -10.1743 
 160   2.0000      -0.373841       -10.1727 
 161   2.0000      -0.368716       -10.0333 
 162   2.0000      -0.368312       -10.0223 
 163   2.0000      -0.367851       -10.0097 
 164   2.0000      -0.367690       -10.0053 
 165   2.0000      -0.366584        -9.9752 
 166   2.0000      -0.356137        -9.6910 
 167   2.0000      -0.355277        -9.6676 
 168   2.0000      -0.351318        -9.5599 
 169   2.0000      -0.350908        -9.5487 
 170   2.0000      -0.350898        -9.5484 
 171   2.0000      -0.348200        -9.4750 
 172   2.0000      -0.340946        -9.2776 
 173   2.0000      -0.338665        -9.2156 
 174   2.0000      -0.337471        -9.1831 
 175   2.0000      -0.325936        -8.8692 
 176   2.0000      -0.304780        -8.2935 
 177   2.0000      -0.298375        -8.1192 
 178   2.0000      -0.297050        -8.0832 
 179   2.0000      -0.283555        -7.7159 
 180   2.0000      -0.283512        -7.7148 
 181   2.0000      -0.277494        -7.5510 
 182   2.0000      -0.272081        -7.4037 
 183   2.0000      -0.269929        -7.3451 
 184   2.0000      -0.269918        -7.3448 
 185   2.0000      -0.269696        -7.3388 
 186   2.0000      -0.243554        -6.6274 
 187   2.0000      -0.230295        -6.2666 
 188   2.0000      -0.230286        -6.2664 
 189   2.0000      -0.223161        -6.0725 
 190   2.0000      -0.213180        -5.8009 
 191   2.0000      -0.204029        -5.5519 
 192   0.0000      -0.080582        -2.1927 
 193   0.0000      -0.055726        -1.5164 
 194   0.0000      -0.032607        -0.8873 
 195   0.0000      -0.032598        -0.8870 
 196   0.0000      -0.021902        -0.5960 
 197   0.0000      -0.019365        -0.5270 
 198   0.0000      -0.018580        -0.5056 
 199   0.0000      -0.012978        -0.3532 
 200   0.0000      -0.001784        -0.0485 
 201   0.0000       0.001882         0.0512 
 202   0.0000       0.001892         0.0515 
 203   0.0000       0.011701         0.3184 
 204   0.0000       0.026207         0.7131 
 205   0.0000       0.034278         0.9328 
 206   0.0000       0.038915         1.0589 
 207   0.0000       0.038929         1.0593 
 208   0.0000       0.052063         1.4167 
 209   0.0000       0.056511         1.5377 
 210   0.0000       0.066085         1.7983 
 211   0.0000       0.067526         1.8375 
 212   0.0000       0.070934         1.9302 
 213   0.0000       0.073596         2.0027 
 214   0.0000       0.078909         2.1472 
 215   0.0000       0.080431         2.1886 
 216   0.0000       0.082491         2.2447 
 217   0.0000       0.083947         2.2843 
 218   0.0000       0.084373         2.2959 
 219   0.0000       0.085087         2.3153 
 220   0.0000       0.085780         2.3342 
 221   0.0000       0.103776         2.8239 
 222   0.0000       0.104417         2.8413 
 223   0.0000       0.105661         2.8752 
 224   0.0000       0.107638         2.9290 
 225   0.0000       0.115030         3.1301 
 226   0.0000       0.123011         3.3473 
 227   0.0000       0.123768         3.3679 
 228   0.0000       0.125008         3.4016 
 229   0.0000       0.125822         3.4238 
 230   0.0000       0.129586         3.5262 
 231   0.0000       0.131976         3.5912 
 232   0.0000       0.134794         3.6679 
 233   0.0000       0.135070         3.6754 
 234   0.0000       0.139036         3.7834 
 235   0.0000       0.142133         3.8676 
 236   0.0000       0.149305         4.0628 
 237   0.0000       0.150888         4.1059 
 238   0.0000       0.152342         4.1454 
 239   0.0000       0.156165         4.2495 
 240   0.0000       0.158299         4.3075 
 241   0.0000       0.158839         4.3222 
 242   0.0000       0.158915         4.3243 
 243   0.0000       0.159471         4.3394 
 244   0.0000       0.161854         4.4043 
 245   0.0000       0.161865         4.4046 
 246   0.0000       0.169368         4.6087 
 247   0.0000       0.170545         4.6408 
 248   0.0000       0.176144         4.7931 
 249   0.0000       0.186482         5.0744 
 250   0.0000       0.189291         5.1509 
 251   0.0000       0.190775         5.1912 
 252   0.0000       0.191236         5.2038 
 253   0.0000       0.191385         5.2079 
 254   0.0000       0.192516         5.2386 
 255   0.0000       0.192644         5.2421 
 256   0.0000       0.197717         5.3801 
 257   0.0000       0.197816         5.3828 
 258   0.0000       0.201964         5.4957 
 259   0.0000       0.208157         5.6642 
 260   0.0000       0.215989         5.8774 
 261   0.0000       0.220057         5.9881 
 262   0.0000       0.221331         6.0227 
 263   0.0000       0.236065         6.4236 
 264   0.0000       0.238773         6.4974 
 265   0.0000       0.244455         6.6520 
 266   0.0000       0.245401         6.6777 
 267   0.0000       0.248075         6.7505 
 268   0.0000       0.248648         6.7661 
 269   0.0000       0.252360         6.8671 
 270   0.0000       0.255172         6.9436 
 271   0.0000       0.260149         7.0790 
 272   0.0000       0.263144         7.1605 
 273   0.0000       0.265538         7.2257 
 274   0.0000       0.266400         7.2491 
 275   0.0000       0.271711         7.3936 
 276   0.0000       0.272312         7.4100 
 277   0.0000       0.278001         7.5648 
 278   0.0000       0.279011         7.5923 
 279   0.0000       0.282473         7.6865 
 280   0.0000       0.284800         7.7498 
 281   0.0000       0.295748         8.0477 
 282   0.0000       0.297644         8.0993 
 283   0.0000       0.301717         8.2101 
 284   0.0000       0.301767         8.2115 
 285   0.0000       0.302511         8.2318 
 286   0.0000       0.304114         8.2754 
 287   0.0000       0.307815         8.3761 
 288   0.0000       0.311179         8.4676 
 289   0.0000       0.314843         8.5673 
 290   0.0000       0.314982         8.5711 
 291   0.0000       0.318158         8.6575 
 292   0.0000       0.320783         8.7290 
 293   0.0000       0.322936         8.7875 
 294   0.0000       0.326310         8.8793 
 295   0.0000       0.331461         9.0195 
 296   0.0000       0.332223         9.0402 
 297   0.0000       0.337323         9.1790 
 298   0.0000       0.340739         9.2720 
 299   0.0000       0.341244         9.2857 
 300   0.0000       0.342844         9.3292 
 301   0.0000       0.343551         9.3485 
 302   0.0000       0.345636         9.4052 
 303   0.0000       0.350163         9.5284 
 304   0.0000       0.351926         9.5764 
 305   0.0000       0.354072         9.6348 
 306   0.0000       0.360359         9.8059 
 307   0.0000       0.360646         9.8137 
 308   0.0000       0.370515        10.0822 
 309   0.0000       0.375550        10.2192 
 310   0.0000       0.375643        10.2218 
 311   0.0000       0.379139        10.3169 
 312   0.0000       0.380409        10.3515 
 313   0.0000       0.383488        10.4352 
 314   0.0000       0.383941        10.4476 
 315   0.0000       0.389611        10.6019 
 316   0.0000       0.392830        10.6895 
 317   0.0000       0.394202        10.7268 
 318   0.0000       0.398267        10.8374 
 319   0.0000       0.398498        10.8437 
 320   0.0000       0.404101        10.9962 
 321   0.0000       0.409174        11.1342 
 322   0.0000       0.409481        11.1426 
 323   0.0000       0.416511        11.3338 
 324   0.0000       0.417054        11.3486 
 325   0.0000       0.417754        11.3677 
 326   0.0000       0.426298        11.6002 
 327   0.0000       0.430112        11.7040 
 328   0.0000       0.431295        11.7361 
 329   0.0000       0.432150        11.7594 
 330   0.0000       0.433379        11.7928 
 331   0.0000       0.434361        11.8196 
 332   0.0000       0.437164        11.8958 
 333   0.0000       0.441483        12.0134 
 334   0.0000       0.448277        12.1982 
 335   0.0000       0.456562        12.4237 
 336   0.0000       0.459445        12.5021 
 337   0.0000       0.459907        12.5147 
 338   0.0000       0.461020        12.5450 
 339   0.0000       0.463228        12.6051 
 340   0.0000       0.463850        12.6220 
 341   0.0000       0.466084        12.6828 
 342   0.0000       0.466980        12.7072 
 343   0.0000       0.471746        12.8369 
 344   0.0000       0.473185        12.8760 
 345   0.0000       0.474480        12.9113 
 346   0.0000       0.475553        12.9405 
 347   0.0000       0.477210        12.9856 
 348   0.0000       0.477347        12.9893 
 349   0.0000       0.482635        13.1332 
 350   0.0000       0.489153        13.3105 
 351   0.0000       0.490001        13.3336 
 352   0.0000       0.492746        13.4083 
 353   0.0000       0.493918        13.4402 
 354   0.0000       0.495018        13.4701 
 355   0.0000       0.496841        13.5197 
 356   0.0000       0.498865        13.5748 
 357   0.0000       0.499192        13.5837 
 358   0.0000       0.499955        13.6045 
 359   0.0000       0.500888        13.6298 
 360   0.0000       0.501585        13.6488 
 361   0.0000       0.502031        13.6610 
 362   0.0000       0.503985        13.7141 
 363   0.0000       0.504395        13.7253 
 364   0.0000       0.508159        13.8277 
 365   0.0000       0.511122        13.9083 
 366   0.0000       0.513627        13.9765 
 367   0.0000       0.514948        14.0124 
 368   0.0000       0.516574        14.0567 
 369   0.0000       0.523053        14.2330 
 370   0.0000       0.523797        14.2532 
 371   0.0000       0.524402        14.2697 
 372   0.0000       0.530111        14.4250 
 373   0.0000       0.530695        14.4410 
 374   0.0000       0.534397        14.5417 
 375   0.0000       0.534481        14.5440 
 376   0.0000       0.541020        14.7219 
 377   0.0000       0.541870        14.7450 
 378   0.0000       0.544846        14.8260 
 379   0.0000       0.546600        14.8737 
 380   0.0000       0.546684        14.8760 
 381   0.0000       0.548379        14.9221 
 382   0.0000       0.549132        14.9427 
 383   0.0000       0.550343        14.9756 
 384   0.0000       0.564579        15.3630 
 385   0.0000       0.574216        15.6252 
 386   0.0000       0.574661        15.6373 
 387   0.0000       0.576857        15.6971 
 388   0.0000       0.577276        15.7085 
 389   0.0000       0.577624        15.7179 
 390   0.0000       0.580240        15.7891 
 391   0.0000       0.581297        15.8179 
 392   0.0000       0.582044        15.8382 
 393   0.0000       0.589075        16.0296 
 394   0.0000       0.593362        16.1462 
 395   0.0000       0.595394        16.2015 
 396   0.0000       0.596024        16.2186 
 397   0.0000       0.601848        16.3771 
 398   0.0000       0.602068        16.3831 
 399   0.0000       0.602634        16.3985 
 400   0.0000       0.603622        16.4254 
 401   0.0000       0.605898        16.4873 
 402   0.0000       0.611612        16.6428 
 403   0.0000       0.616709        16.7815 
 404   0.0000       0.623007        16.9529 
 405   0.0000       0.632705        17.2168 
 406   0.0000       0.636607        17.3229 
 407   0.0000       0.639526        17.4024 
 408   0.0000       0.640322        17.4241 
 409   0.0000       0.646937        17.6041 
 410   0.0000       0.650267        17.6947 
 411   0.0000       0.651626        17.7317 
 412   0.0000       0.652249        17.7486 
 413   0.0000       0.655875        17.8473 
 414   0.0000       0.658862        17.9285 
 415   0.0000       0.659503        17.9460 
 416   0.0000       0.661172        17.9914 
 417   0.0000       0.661566        18.0021 
 418   0.0000       0.664338        18.0776 
 419   0.0000       0.665574        18.1112 
 420   0.0000       0.666528        18.1371 
 421   0.0000       0.669695        18.2233 
 422   0.0000       0.669953        18.2304 
 423   0.0000       0.671079        18.2610 
 424   0.0000       0.671360        18.2686 
 425   0.0000       0.674973        18.3670 
 426   0.0000       0.676594        18.4111 
 427   0.0000       0.679040        18.4776 
 428   0.0000       0.679253        18.4834 
 429   0.0000       0.681223        18.5370 
 430   0.0000       0.683571        18.6009 
 431   0.0000       0.683709        18.6047 
 432   0.0000       0.685729        18.6596 
 433   0.0000       0.686273        18.6744 
 434   0.0000       0.687576        18.7099 
 435   0.0000       0.692292        18.8382 
 436   0.0000       0.693038        18.8585 
 437   0.0000       0.693270        18.8648 
 438   0.0000       0.695401        18.9228 
 439   0.0000       0.696769        18.9600 
 440   0.0000       0.697752        18.9868 
 441   0.0000       0.697999        18.9935 
 442   0.0000       0.700101        19.0507 
 443   0.0000       0.703782        19.1509 
 444   0.0000       0.705897        19.2084 
 445   0.0000       0.707155        19.2427 
 446   0.0000       0.713022        19.4023 
 447   0.0000       0.715567        19.4716 
 448   0.0000       0.716112        19.4864 
 449   0.0000       0.716164        19.4878 
 450   0.0000       0.721819        19.6417 
 451   0.0000       0.722505        19.6604 
 452   0.0000       0.726320        19.7642 
 453   0.0000       0.727179        19.7876 
 454   0.0000       0.732322        19.9275 
 455   0.0000       0.732886        19.9428 
 456   0.0000       0.734356        19.9828 
 457   0.0000       0.734944        19.9988 
 458   0.0000       0.740753        20.1569 
 459   0.0000       0.742678        20.2093 
 460   0.0000       0.745052        20.2739 
 461   0.0000       0.746915        20.3246 
 462   0.0000       0.748367        20.3641 
 463   0.0000       0.750301        20.4167 
 464   0.0000       0.750334        20.4176 
 465   0.0000       0.752020        20.4635 
 466   0.0000       0.753465        20.5028 
 467   0.0000       0.753817        20.5124 
 468   0.0000       0.755806        20.5665 
 469   0.0000       0.759286        20.6612 
 470   0.0000       0.763978        20.7889 
 471   0.0000       0.765571        20.8322 
 472   0.0000       0.768041        20.8995 
 473   0.0000       0.770642        20.9702 
 474   0.0000       0.773185        21.0394 
 475   0.0000       0.775735        21.1088 
 476   0.0000       0.777213        21.1490 
 477   0.0000       0.777522        21.1574 
 478   0.0000       0.780634        21.2421 
 479   0.0000       0.784371        21.3438 
 480   0.0000       0.787143        21.4193 
 481   0.0000       0.791222        21.5302 
 482   0.0000       0.791372        21.5343 
 483   0.0000       0.792002        21.5515 
 484   0.0000       0.794515        21.6199 
 485   0.0000       0.794873        21.6296 
 486   0.0000       0.796403        21.6712 
 487   0.0000       0.797417        21.6988 
 488   0.0000       0.804783        21.8993 
 489   0.0000       0.806802        21.9542 
 490   0.0000       0.815288        22.1851 
 491   0.0000       0.818686        22.2776 
 492   0.0000       0.830595        22.6016 
 493   0.0000       0.832422        22.6514 
 494   0.0000       0.832767        22.6607 
 495   0.0000       0.833684        22.6857 
 496   0.0000       0.833701        22.6862 
 497   0.0000       0.839936        22.8558 
 498   0.0000       0.846304        23.0291 
 499   0.0000       0.852644        23.2016 
 500   0.0000       0.865184        23.5428 
 501   0.0000       0.865507        23.5516 
 502   0.0000       0.869494        23.6601 
 503   0.0000       0.869949        23.6725 
 504   0.0000       0.871477        23.7141 
 505   0.0000       0.874589        23.7988 
 506   0.0000       0.874660        23.8007 
 507   0.0000       0.884768        24.0758 
 508   0.0000       0.886620        24.1262 
 509   0.0000       0.904418        24.6105 
 510   0.0000       0.904601        24.6154 
 511   0.0000       0.909613        24.7518 
 512   0.0000       0.918407        24.9911 
 513   0.0000       0.921453        25.0740 
 514   0.0000       0.929052        25.2808 
 515   0.0000       0.933353        25.3978 
 516   0.0000       0.938164        25.5287 
 517   0.0000       0.941658        25.6238 
 518   0.0000       0.941814        25.6281 
 519   0.0000       0.955685        26.0055 
 520   0.0000       0.963306        26.2129 
 521   0.0000       0.964068        26.2336 
 522   0.0000       0.964198        26.2372 
 523   0.0000       0.964624        26.2487 
 524   0.0000       0.974498        26.5174 
 525   0.0000       0.979112        26.6430 
 526   0.0000       0.990900        26.9637 
 527   0.0000       0.993699        27.0399 
 528   0.0000       0.994429        27.0598 
 529   0.0000       1.003591        27.3091 
 530   0.0000       1.012832        27.5606 
 531   0.0000       1.018147        27.7052 
 532   0.0000       1.023784        27.8586 
 533   0.0000       1.030095        28.0303 
 534   0.0000       1.032757        28.1027 
 535   0.0000       1.055324        28.7168 
 536   0.0000       1.060601        28.8604 
 537   0.0000       1.069408        29.1001 
 538   0.0000       1.082044        29.4439 
 539   0.0000       1.083635        29.4872 
 540   0.0000       1.088498        29.6195 
 541   0.0000       1.089164        29.6377 
 542   0.0000       1.107644        30.1405 
 543   0.0000       1.108165        30.1547 
 544   0.0000       1.118828        30.4449 
 545   0.0000       1.123529        30.5728 
 546   0.0000       1.126710        30.6593 
 547   0.0000       1.143397        31.1134 
 548   0.0000       1.146912        31.2091 
 549   0.0000       1.148447        31.2508 
 550   0.0000       1.148870        31.2624 
 551   0.0000       1.153792        31.3963 
 552   0.0000       1.161986        31.6192 
 553   0.0000       1.178268        32.0623 
 554   0.0000       1.182780        32.1851 
 555   0.0000       1.196582        32.5606 
 556   0.0000       1.198048        32.6006 
 557   0.0000       1.206967        32.8432 
 558   0.0000       1.208389        32.8819 
 559   0.0000       1.209332        32.9076 
 560   0.0000       1.211538        32.9676 
 561   0.0000       1.213972        33.0339 
 562   0.0000       1.218744        33.1637 
 563   0.0000       1.221901        33.2496 
 564   0.0000       1.222425        33.2639 
 565   0.0000       1.223120        33.2828 
 566   0.0000       1.225874        33.3577 
 567   0.0000       1.227012        33.3887 
 568   0.0000       1.229311        33.4513 
 569   0.0000       1.238143        33.6916 
 570   0.0000       1.241618        33.7861 
 571   0.0000       1.242311        33.8050 
 572   0.0000       1.243238        33.8302 
 573   0.0000       1.245694        33.8971 
 574   0.0000       1.246142        33.9092 
 575   0.0000       1.247853        33.9558 
 576   0.0000       1.250738        34.0343 
 577   0.0000       1.255299        34.1584 
 578   0.0000       1.258485        34.2451 
 579   0.0000       1.260954        34.3123 
 580   0.0000       1.262082        34.3430 
 581   0.0000       1.262184        34.3458 
 582   0.0000       1.267309        34.4852 
 583   0.0000       1.267934        34.5022 
 584   0.0000       1.269176        34.5360 
 585   0.0000       1.269648        34.5489 
 586   0.0000       1.275638        34.7119 
 587   0.0000       1.275930        34.7198 
 588   0.0000       1.284290        34.9473 
 589   0.0000       1.284783        34.9607 
 590   0.0000       1.287288        35.0289 
 591   0.0000       1.287604        35.0375 
 592   0.0000       1.289028        35.0762 
 593   0.0000       1.290820        35.1250 
 594   0.0000       1.294699        35.2306 
 595   0.0000       1.296366        35.2759 
 596   0.0000       1.301376        35.4122 
 597   0.0000       1.301905        35.4266 
 598   0.0000       1.311449        35.6864 
 599   0.0000       1.314963        35.7820 
 600   0.0000       1.315468        35.7957 
 601   0.0000       1.315511        35.7969 
 602   0.0000       1.320707        35.9383 
 603   0.0000       1.320989        35.9459 
 604   0.0000       1.322696        35.9924 
 605   0.0000       1.328690        36.1555 
 606   0.0000       1.329208        36.1696 
 607   0.0000       1.332599        36.2619 
 608   0.0000       1.333134        36.2764 
 609   0.0000       1.333686        36.2914 
 610   0.0000       1.336627        36.3715 
 611   0.0000       1.345958        36.6254 
 612   0.0000       1.350731        36.7553 
 613   0.0000       1.351983        36.7893 
 614   0.0000       1.370059        37.2812 
 615   0.0000       1.370845        37.3026 
 616   0.0000       1.380589        37.5677 
 617   0.0000       1.380818        37.5740 
 618   0.0000       1.382323        37.6149 
 619   0.0000       1.385747        37.7081 
 620   0.0000       1.388246        37.7761 
 621   0.0000       1.388366        37.7794 
 622   0.0000       1.411236        38.4017 
 623   0.0000       1.432480        38.9798 
 624   0.0000       1.436494        39.0890 
 625   0.0000       1.443754        39.2865 
 626   0.0000       1.443860        39.2894 
 627   0.0000       1.450811        39.4786 
 628   0.0000       1.478063        40.2201 
 629   0.0000       1.497781        40.7567 
 630   0.0000       1.512617        41.1604 
 631   0.0000       1.516136        41.2561 
 632   0.0000       1.518055        41.3084 
 633   0.0000       1.536852        41.8199 
 634   0.0000       1.552799        42.2538 
 635   0.0000       1.569722        42.7143 
 636   0.0000       1.572252        42.7831 
 637   0.0000       1.572406        42.7874 
 638   0.0000       1.583955        43.1016 
 639   0.0000       1.584027        43.1036 
 640   0.0000       1.619213        44.0610 
 641   0.0000       1.622008        44.1371 
 642   0.0000       1.637613        44.5617 
 643   0.0000       1.648017        44.8448 
 644   0.0000       1.649836        44.8943 
 645   0.0000       1.653694        44.9993 
 646   0.0000       1.658893        45.1408 
 647   0.0000       1.662759        45.2460 
 648   0.0000       1.665591        45.3230 
 649   0.0000       1.674684        45.5705 
 650   0.0000       1.675074        45.5811 
 651   0.0000       1.675200        45.5845 
 652   0.0000       1.675896        45.6034 
 653   0.0000       1.678922        45.6858 
 654   0.0000       1.679026        45.6886 
 655   0.0000       1.691474        46.0273 
 656   0.0000       1.691773        46.0355 
 657   0.0000       1.697153        46.1819 
 658   0.0000       1.699213        46.2379 
 659   0.0000       1.704205        46.3738 
 660   0.0000       1.706293        46.4306 
 661   0.0000       1.709425        46.5158 
 662   0.0000       1.709694        46.5231 
 663   0.0000       1.711135        46.5623 
 664   0.0000       1.712719        46.6054 
 665   0.0000       1.714979        46.6670 
 666   0.0000       1.715030        46.6683 
 667   0.0000       1.717886        46.7461 
 668   0.0000       1.719967        46.8027 
 669   0.0000       1.721349        46.8403 
 670   0.0000       1.729736        47.0685 
 671   0.0000       1.731097        47.1056 
 672   0.0000       1.735126        47.2152 
 673   0.0000       1.735664        47.2298 
 674   0.0000       1.736644        47.2565 
 675   0.0000       1.737040        47.2673 
 676   0.0000       1.738992        47.3204 
 677   0.0000       1.742172        47.4069 
 678   0.0000       1.743434        47.4412 
 679   0.0000       1.744509        47.4705 
 680   0.0000       1.748891        47.5897 
 681   0.0000       1.749728        47.6125 
 682   0.0000       1.752807        47.6963 
 683   0.0000       1.754340        47.7380 
 684   0.0000       1.754975        47.7553 
 685   0.0000       1.758653        47.8554 
 686   0.0000       1.760021        47.8926 
 687   0.0000       1.760151        47.8961 
 688   0.0000       1.762286        47.9542 
 689   0.0000       1.765160        48.0325 
 690   0.0000       1.771088        48.1937 
 691   0.0000       1.771099        48.1941 
 692   0.0000       1.774798        48.2947 
 693   0.0000       1.776091        48.3299 
 694   0.0000       1.776349        48.3369 
 695   0.0000       1.779526        48.4234 
 696   0.0000       1.785010        48.5726 
 697   0.0000       1.785118        48.5755 
 698   0.0000       1.785125        48.5757 
 699   0.0000       1.785990        48.5993 
 700   0.0000       1.791135        48.7393 
 701   0.0000       1.794781        48.8385 
 702   0.0000       1.797664        48.9169 
 703   0.0000       1.804956        49.1153 
 704   0.0000       1.805097        49.1192 
 705   0.0000       1.805532        49.1310 
 706   0.0000       1.807552        49.1860 
 707   0.0000       1.809216        49.2313 
 708   0.0000       1.811248        49.2866 
 709   0.0000       1.819211        49.5032 
 710   0.0000       1.821424        49.5635 
 711   0.0000       1.821434        49.5637 
 712   0.0000       1.821660        49.5699 
 713   0.0000       1.824890        49.6578 
 714   0.0000       1.829183        49.7746 
 715   0.0000       1.830026        49.7975 
 716   0.0000       1.834892        49.9299 
 717   0.0000       1.836375        49.9703 
 718   0.0000       1.840036        50.0699 
 719   0.0000       1.840661        50.0869 
 720   0.0000       1.842876        50.1472 
 721   0.0000       1.845657        50.2229 
 722   0.0000       1.848663        50.3047 
 723   0.0000       1.850394        50.3518 
 724   0.0000       1.855981        50.5038 
 725   0.0000       1.864536        50.7366 
 726   0.0000       1.867430        50.8154 
 727   0.0000       1.886051        51.3221 
 728   0.0000       1.894700        51.5574 
 729   0.0000       1.896930        51.6181 
 730   0.0000       1.897329        51.6290 
 731   0.0000       1.904476        51.8234 
 732   0.0000       1.909374        51.9567 
 733   0.0000       1.910558        51.9889 
 734   0.0000       1.919811        52.2407 
 735   0.0000       1.920643        52.2634 
 736   0.0000       1.920936        52.2713 
 737   0.0000       1.921195        52.2784 
 738   0.0000       1.923416        52.3388 
 739   0.0000       1.924307        52.3631 
 740   0.0000       1.938833        52.7583 
 741   0.0000       1.944247        52.9057 
 742   0.0000       1.946713        52.9727 
 743   0.0000       1.947241        52.9871 
 744   0.0000       1.948464        53.0204 
 745   0.0000       1.959482        53.3202 
 746   0.0000       1.959670        53.3253 
 747   0.0000       1.959872        53.3308 
 748   0.0000       1.964183        53.4481 
 749   0.0000       1.964491        53.4565 
 750   0.0000       1.967454        53.5371 
 751   0.0000       1.967528        53.5392 
 752   0.0000       1.969061        53.5809 
 753   0.0000       1.978154        53.8283 
 754   0.0000       1.979648        53.8690 
 755   0.0000       1.985931        54.0399 
 756   0.0000       1.989205        54.1290 
 757   0.0000       1.989425        54.1350 
 758   0.0000       1.992729        54.2249 
 759   0.0000       1.994821        54.2818 
 760   0.0000       1.999363        54.4054 
 761   0.0000       2.003138        54.5082 
 762   0.0000       2.005484        54.5720 
 763   0.0000       2.012302        54.7575 
 764   0.0000       2.021354        55.0038 
 765   0.0000       2.021675        55.0126 
 766   0.0000       2.026913        55.1551 
 767   0.0000       2.030586        55.2550 
 768   0.0000       2.042220        55.5716 
 769   0.0000       2.043466        55.6055 
 770   0.0000       2.051258        55.8176 
 771   0.0000       2.055347        55.9288 
 772   0.0000       2.059214        56.0341 
 773   0.0000       2.065110        56.1945 
 774   0.0000       2.065608        56.2080 
 775   0.0000       2.068029        56.2739 
 776   0.0000       2.068296        56.2812 
 777   0.0000       2.073852        56.4324 
 778   0.0000       2.079849        56.5956 
 779   0.0000       2.081623        56.6438 
 780   0.0000       2.083672        56.6996 
 781   0.0000       2.085985        56.7625 
 782   0.0000       2.091730        56.9189 
 783   0.0000       2.097172        57.0669 
 784   0.0000       2.100990        57.1708 
 785   0.0000       2.104668        57.2709 
 786   0.0000       2.115141        57.5559 
 787   0.0000       2.117163        57.6109 
 788   0.0000       2.128208        57.9115 
 789   0.0000       2.128235        57.9122 
 790   0.0000       2.130178        57.9651 
 791   0.0000       2.132252        58.0215 
 792   0.0000       2.138827        58.2005 
 793   0.0000       2.141504        58.2733 
 794   0.0000       2.142943        58.3124 
 795   0.0000       2.148340        58.4593 
 796   0.0000       2.148488        58.4633 
 797   0.0000       2.150548        58.5194 
 798   0.0000       2.152530        58.5733 
 799   0.0000       2.161325        58.8127 
 800   0.0000       2.163866        58.8818 
 801   0.0000       2.165954        58.9386 
 802   0.0000       2.172083        59.1054 
 803   0.0000       2.175758        59.2054 
 804   0.0000       2.176969        59.2383 
 805   0.0000       2.179487        59.3069 
 806   0.0000       2.182337        59.3844 
 807   0.0000       2.187228        59.5175 
 808   0.0000       2.190444        59.6050 
 809   0.0000       2.190508        59.6067 
 810   0.0000       2.193477        59.6876 
 811   0.0000       2.196156        59.7604 
 812   0.0000       2.200620        59.8819 
 813   0.0000       2.205046        60.0024 
 814   0.0000       2.209433        60.1217 
 815   0.0000       2.211531        60.1788 
 816   0.0000       2.212546        60.2064 
 817   0.0000       2.213455        60.2312 
 818   0.0000       2.217900        60.3521 
 819   0.0000       2.224836        60.5409 
 820   0.0000       2.224950        60.5440 
 821   0.0000       2.227028        60.6005 
 822   0.0000       2.230954        60.7073 
 823   0.0000       2.242862        61.0314 
 824   0.0000       2.244081        61.0646 
 825   0.0000       2.253714        61.3267 
 826   0.0000       2.255380        61.3720 
 827   0.0000       2.260376        61.5080 
 828   0.0000       2.270165        61.7743 
 829   0.0000       2.290478        62.3271 
 830   0.0000       2.291138        62.3450 
 831   0.0000       2.296143        62.4812 
 832   0.0000       2.305543        62.7370 
 833   0.0000       2.305671        62.7405 
 834   0.0000       2.306311        62.7579 
 835   0.0000       2.308272        62.8113 
 836   0.0000       2.310313        62.8668 
 837   0.0000       2.310517        62.8724 
 838   0.0000       2.313231        62.9462 
 839   0.0000       2.316729        63.0414 
 840   0.0000       2.317982        63.0755 
 841   0.0000       2.325602        63.2828 
 842   0.0000       2.327091        63.3234 
 843   0.0000       2.331405        63.4408 
 844   0.0000       2.340629        63.6917 
 845   0.0000       2.346213        63.8437 
 846   0.0000       2.347924        63.8903 
 847   0.0000       2.348540        63.9070 
 848   0.0000       2.348970        63.9187 
 849   0.0000       2.351917        63.9989 
 850   0.0000       2.352637        64.0185 
 851   0.0000       2.353278        64.0360 
 852   0.0000       2.364218        64.3337 
 853   0.0000       2.368314        64.4451 
 854   0.0000       2.376725        64.6740 
 855   0.0000       2.389383        65.0184 
 856   0.0000       2.391524        65.0767 
 857   0.0000       2.393062        65.1185 
 858   0.0000       2.406159        65.4749 
 859   0.0000       2.406328        65.4795 
 860   0.0000       2.412407        65.6449 
 861   0.0000       2.413299        65.6692 
 862   0.0000       2.421046        65.8800 
 863   0.0000       2.421160        65.8831 
 864   0.0000       2.421920        65.9038 
 865   0.0000       2.428663        66.0873 
 866   0.0000       2.432714        66.1975 
 867   0.0000       2.433131        66.2088 
 868   0.0000       2.474487        67.3342 
 869   0.0000       2.477436        67.4145 
 870   0.0000       2.480719        67.5038 
 871   0.0000       2.489242        67.7357 
 872   0.0000       2.499376        68.0115 
 873   0.0000       2.503295        68.1181 
 874   0.0000       2.524108        68.6845 
 875   0.0000       2.531280        68.8796 
 876   0.0000       2.532893        68.9235 
 877   0.0000       2.535733        69.0008 
 878   0.0000       2.544288        69.2336 
 879   0.0000       2.552470        69.4563 
 880   0.0000       2.552612        69.4601 
 881   0.0000       2.565903        69.8218 
 882   0.0000       2.569514        69.9200 
 883   0.0000       2.579569        70.1936 
 884   0.0000       2.586600        70.3850 
 885   0.0000       2.596242        70.6473 
 886   0.0000       2.601529        70.7912 
 887   0.0000       2.601659        70.7947 
 888   0.0000       2.604439        70.8704 
 889   0.0000       2.604627        70.8755 
 890   0.0000       2.612869        71.0998 
 891   0.0000       2.622832        71.3709 
 892   0.0000       2.626624        71.4741 
 893   0.0000       2.628201        71.5170 
 894   0.0000       2.633258        71.6546 
 895   0.0000       2.635056        71.7035 
 896   0.0000       2.637979        71.7830 
 897   0.0000       2.639348        71.8203 
 898   0.0000       2.642994        71.9195 
 899   0.0000       2.653125        72.1952 
 900   0.0000       2.654559        72.2342 
 901   0.0000       2.658358        72.3376 
 902   0.0000       2.663796        72.4856 
 903   0.0000       2.670781        72.6756 
 904   0.0000       2.674131        72.7668 
 905   0.0000       2.675013        72.7908 
 906   0.0000       2.680682        72.9451 
 907   0.0000       2.682112        72.9840 
 908   0.0000       2.689385        73.1819 
 909   0.0000       2.698790        73.4378 
 910   0.0000       2.700236        73.4772 
 911   0.0000       2.714402        73.8626 
 912   0.0000       2.715088        73.8813 
 913   0.0000       2.716651        73.9238 
 914   0.0000       2.728309        74.2411 
 915   0.0000       2.729941        74.2855 
 916   0.0000       2.734013        74.3963 
 917   0.0000       2.743550        74.6558 
 918   0.0000       2.744115        74.6712 
 919   0.0000       2.749150        74.8082 
 920   0.0000       2.749219        74.8100 
 921   0.0000       2.750189        74.8364 
 922   0.0000       2.750565        74.8467 
 923   0.0000       2.752727        74.9055 
 924   0.0000       2.752961        74.9119 
 925   0.0000       2.760483        75.1166 
 926   0.0000       2.762497        75.1714 
 927   0.0000       2.762763        75.1786 
 928   0.0000       2.782729        75.7219 
 929   0.0000       2.783438        75.7412 
 930   0.0000       2.794654        76.0464 
 931   0.0000       2.794868        76.0522 
 932   0.0000       2.797408        76.1213 
 933   0.0000       2.811458        76.5037 
 934   0.0000       2.811979        76.5178 
 935   0.0000       2.828291        76.9617 
 936   0.0000       2.853328        77.6430 
 937   0.0000       2.856973        77.7422 
 938   0.0000       2.876441        78.2719 
 939   0.0000       2.877949        78.3130 
 940   0.0000       2.881629        78.4131 
 941   0.0000       2.881855        78.4193 
 942   0.0000       2.885577        78.5206 
 943   0.0000       2.885644        78.5224 
 944   0.0000       2.886004        78.5322 
 945   0.0000       2.899616        78.9026 
 946   0.0000       2.901743        78.9604 
 947   0.0000       2.902601        78.9838 
 948   0.0000       2.904621        79.0387 
 949   0.0000       2.907411        79.1147 
 950   0.0000       2.914291        79.3019 
 951   0.0000       2.927843        79.6707 
 952   0.0000       2.935872        79.8892 
 953   0.0000       2.945697        80.1565 
 954   0.0000       2.969211        80.7963 
 955   0.0000       2.971360        80.8548 
 956   0.0000       2.972571        80.8878 
 957   0.0000       2.976118        80.9843 
 958   0.0000       2.985422        81.2375 
 959   0.0000       2.987057        81.2820 
 960   0.0000       3.005647        81.7878 
 961   0.0000       3.014245        82.0218 
 962   0.0000       3.021107        82.2085 
 963   0.0000       3.041563        82.7651 
 964   0.0000       3.053140        83.0802 
 965   0.0000       3.054581        83.1194 
 966   0.0000       3.093510        84.1787 
 967   0.0000       3.106024        84.5192 
 968   0.0000       3.106203        84.5241 
 969   0.0000       3.111934        84.6800 
 970   0.0000       3.117178        84.8227 
 971   0.0000       3.132869        85.2497 
 972   0.0000       3.133296        85.2613 
 973   0.0000       3.135435        85.3195 
 974   0.0000       3.136483        85.3480 
 975   0.0000       3.155468        85.8646 
 976   0.0000       3.165456        86.1364 
 977   0.0000       3.176370        86.4334 
 978   0.0000       3.184121        86.6443 
 979   0.0000       3.235147        88.0328 
 980   0.0000       3.290283        89.5331 
 981   0.0000       3.301386        89.8353 
 982   0.0000       3.319018        90.3151 
 983   0.0000       3.345730        91.0419 
 984   0.0000       3.354080        91.2692 
 985   0.0000       3.366280        91.6011 
 986   0.0000       3.377756        91.9134 
 987   0.0000       3.410306        92.7991 
 988   0.0000       3.446505        93.7842 
 989   0.0000       3.447754        93.8181 
 990   0.0000       3.536855        96.2427 
 991   0.0000       3.579394        97.4003 
 992   0.0000       3.581594        97.4601 
 993   0.0000       3.654690        99.4492 
 994   0.0000       3.665305        99.7380 
 995   0.0000       3.683187       100.2246 
 996   0.0000       3.724554       101.3503 
 997   0.0000       3.724565       101.3506 
Total SCF time: 0 days 0 hours 7 min 31 sec 

Maximum memory used throughout the entire SCF-calculation: 338.2 MB


           ************************************************************
           *        Program running with 20 parallel MPI-processes    *
           *              working on a common directory               *
           ************************************************************
------------------------------------------------------------------------------
                        ORCA TD-DFT/TDA CALCULATION
------------------------------------------------------------------------------

Input orbitals are from        ... S0_TDA_SP.gbw
[...]
  69   H   :    0.000105084    0.000497814    0.000188431
  70   H   :    0.000094878    0.000243376    0.000104758
  71   H   :   -0.000065023    0.000096865    0.000004671
  72   H   :   -0.000078359   -0.000117707    0.000031671
  73   H   :   -0.000027206    0.000137543   -0.000038926
  74   H   :   -0.000086873   -0.000063437   -0.000035291
  75   H   :    0.000020836   -0.000262844   -0.000096926
  76   H   :   -0.000025972   -0.000490812   -0.000243721
  77   H   :   -0.000218343   -0.000354041    0.000496280
  78   H   :    0.000126278   -0.000145849   -0.000417362
  79   H   :    0.000086872    0.000075112   -0.000034091
  80   H   :   -0.000018854    0.000011878    0.000001462
  81   H   :    0.000018463    0.000011899    0.000002904
  82   H   :   -0.000086951    0.000074974   -0.000033837
  83   H   :    0.000301016    0.000432011   -0.000053638
  84   H   :   -0.000238843    0.000016235    0.000184518
  85   H   :   -0.000124605   -0.000148968   -0.000415782
  86   H   :    0.000218126   -0.000348988    0.000498506
  87   H   :   -0.000105684    0.000499000    0.000185778
  88   H   :   -0.000094914    0.000243310    0.000103355
  89   H   :    0.000064238    0.000096748    0.000004800
  90   H   :    0.000077982   -0.000118140    0.000032048
  91   H   :    0.000026794    0.000137722   -0.000038908
  92   H   :    0.000086416   -0.000063323   -0.000034726
  93   H   :   -0.000020834   -0.000262672   -0.000095332
  94   H   :    0.000026079   -0.000492800   -0.000241661
  95   H   :   -0.000053783    0.000390844   -0.000505764
  96   H   :    0.000005071    0.000113332    0.000536374
  97   H   :    0.000018521    0.000022788   -0.000004116

Difference to translation invariance:
           :   -0.0000010398   -0.0000253234   -0.0000024068

Difference to rotation invariance:
           :   -0.0001809922   -0.0000255648   -0.0000030371

Norm of the cartesian gradient     ...    0.0947668571
RMS gradient                       ...    0.0055553315
MAX gradient                       ...    0.0262198489

---------------------------------
CARTESIAN NON-ADIABATIC COUPLINGS
          <GS|d/dx|ES>
        with built-in ETFs
---------------------------------

   1   C   :   -0.003484295    0.000003857    0.000000601
   2   C   :    0.004837072    0.000004865    0.000004012
   3   C   :   -0.003694728   -0.000000899    0.000004043
   4   C   :    0.050627028   -0.032051303    0.016776004
   5   C   :   -0.061724738   -0.005848507    0.003754596
   6   C   :    0.079483303    0.035841987   -0.020137612
   7   C   :   -0.075771052    0.027594828   -0.015023159
   8   C   :    0.076703686   -0.041883554    0.021714782
   9   C   :   -0.100544138    0.017121385   -0.007305003
  10   C   :    0.045505720    0.002530504   -0.004808500
  11   C   :   -0.027555957    0.029322728    0.013843305
  12   C   :    0.061602751   -0.006098681    0.006975473
  13   N   :   -0.048061677    0.009438707   -0.007154855
  14   C   :    0.004447265   -0.005764580    0.017668792
  15   C   :    0.001606726    0.002767189   -0.000696288
  16   C   :   -0.001326187   -0.000360060   -0.000592508
  17   C   :   -0.001696563   -0.000284926    0.001828733
  18   C   :    0.002971036    0.004817453    0.001981399
  19   C   :    0.000711108   -0.008641605   -0.000983360
  20   C   :    0.004554083    0.007723793    0.001316747
  21   C   :    0.000983297   -0.006427395   -0.002309094
  22   C   :   -0.001901894    0.001681624   -0.001870466
  23   C   :   -0.000050214    0.001387524   -0.000263858
  24   C   :   -0.000783014   -0.003590179    0.001450116
  25   C   :    0.007603335    0.002740845   -0.015925370
  26   C   :   -0.042041287   -0.018318998   -0.017764942
  27   C   :    0.043855298   -0.020392716    0.011996095
  28   C   :    0.008571159   -0.026255566    0.013037288
  29   C   :   -0.022039865    0.005172310   -0.002460145
  30   C   :   -0.002652611    0.030589587   -0.015658154
  31   C   :   -0.002175231   -0.030512829    0.015626666
  32   C   :   -0.022283340   -0.005106871    0.002407673
  33   C   :    0.008762240    0.026406396   -0.013071365
  34   C   :    0.079073651   -0.035877843    0.020292252
  35   C   :   -0.075425609   -0.027339740    0.015004332
  36   C   :    0.076470001    0.041685229   -0.021660814
  37   C   :   -0.100329774   -0.017109948    0.007272801
  38   C   :    0.043814691    0.020320759   -0.012014778
  39   C   :   -0.042035654    0.018430846    0.017632950
  40   C   :    0.061569870    0.006060483   -0.006923408
  41   N   :   -0.048028019   -0.009398109    0.007116877
  42   C   :    0.004466262    0.005649388   -0.017725875
  43   C   :    0.001612470   -0.002752074    0.000726232
  44   C   :   -0.001340749    0.000350156    0.000583573
  45   C   :   -0.001677828    0.000262277   -0.001841378
  46   C   :    0.002972490   -0.004803831   -0.001938155
  47   C   :    0.000690613    0.008632994    0.000930087
  48   C   :    0.004552714   -0.007712397   -0.001258575
  49   C   :    0.000978920    0.006430947    0.002263820
  50   C   :   -0.001896214   -0.001667831    0.001882329
  51   C   :   -0.000051988   -0.001381076    0.000271586
  52   C   :   -0.000771543    0.003578538   -0.001492066
  53   C   :    0.007577605   -0.002647174    0.015991553
  54   C   :   -0.027479886   -0.029420419   -0.013722495
  55   C   :    0.045417396   -0.002468187    0.004830055
  56   C   :   -0.061504466    0.005786174   -0.003768248
  57   C   :    0.050437248    0.031872563   -0.016711926
  58   H   :   -0.002553244   -0.002399349    0.002526067
  59   H   :   -0.002550151    0.002399710   -0.002526509
  60   H   :    0.001202990   -0.000002095    0.000002383
  61   H   :   -0.002542151    0.003461267   -0.000435781
  62   H   :   -0.002544303   -0.003458263    0.000434335
  63   H   :    0.001167060   -0.000001024    0.000001568
  64   H   :    0.000487996    0.000624744   -0.000090978
  65   H   :    0.000443163    0.003592843   -0.000663003
  66   H   :   -0.000336573   -0.002784744    0.002293827
  67   H   :    0.000026238   -0.000723937   -0.005879760
  68   H   :    0.001682320    0.002786811   -0.001648428
  69   H   :    0.000988404    0.001841633    0.001652826
  70   H   :   -0.000045167    0.000016046   -0.000144192
  71   H   :    0.000261279   -0.000208616   -0.000295895
  72   H   :    0.000619564    0.000193495   -0.001335742
  73   H   :    0.000252928   -0.000364570    0.001393763
  74   H   :    0.000197797    0.000015220    0.000570026
  75   H   :   -0.000044022   -0.000024857    0.000086814
  76   H   :    0.000536906   -0.002355862   -0.001110106
  77   H   :    0.000060337   -0.003568403    0.001115762
  78   H   :   -0.001185240    0.000752871    0.003628167
  79   H   :    0.000046039    0.000342008   -0.000211385
  80   H   :   -0.002345984    0.001056562   -0.000547418
  81   H   :   -0.002348087   -0.001055063    0.000548837
  82   H   :    0.000046842   -0.000340289    0.000210415
  83   H   :    0.000445515   -0.003608645    0.000628890
  84   H   :   -0.000337085    0.002727496   -0.002381863
  85   H   :   -0.001174976   -0.000782327   -0.003626534
  86   H   :    0.000061367    0.003559264   -0.001147577
  87   H   :    0.000991764   -0.001850272   -0.001639284
  88   H   :   -0.000046096   -0.000013777    0.000144647
  89   H   :    0.000262487    0.000211753    0.000296390
  90   H   :    0.000619821   -0.000185207    0.001337751
  91   H   :    0.000255168    0.000358478   -0.001397490
  92   H   :    0.000198373   -0.000018154   -0.000570543
  93   H   :   -0.000043911    0.000022475   -0.000087619
  94   H   :    0.000533940    0.002361600    0.001095354
  95   H   :    0.001659918   -0.002794057    0.001691463
  96   H   :    0.000013354    0.000781060    0.005893090
  97   H   :    0.000490635   -0.000636367    0.000068193

Difference to translation invariance:
           :   -0.0004142672    0.0000180957   -0.0000171639

Norm of the NACs                   ...    0.3459323450
RMS NACs                           ...    0.0202789132
MAX NAC                            ...    0.1005441383

------------------------------------------------------------------------------
                  RELAXED CIS/TDA DENSITY POPULATION ANALYSIS
                                   IROOT 3
------------------------------------------------------------------------------
------------------------------------------------------------------------------
                           ORCA POPULATION ANALYSIS
------------------------------------------------------------------------------
Input electron density              ... S0_TDA_SP.cisp
BaseName (.gbw .S,...)              ... S0_TDA_SP

                            ------------------
                               GROUND STATE 
                            ------------------

 ... reading COSX grid (gridx3)
Gradient of the Kohn-Sham DFT energy:
Kohn-Sham wavefunction type      ... RKS
Hartree-Fock exchange scaling    ...    0.250
Number of operators              ...    1
Number of atoms                  ...   97
Basis set dimensions             ...  998
Integral neglect threshold       ... 2.5e-11
Integral primitive cutoff        ... 2.5e-12
SHARK Integral package           ... ON

Nuc. rep. gradient       (SHARK) ... done (  0.0 sec)
HCore & Overlap gradient (SHARK) ... done (  1.5 sec)
RI-J gradient            (SHARK) ... done (  6.0 sec)
COSX-gradient                    ... done ( 91.2 sec)
Exchange-correlation gradient    ... done
Dispersion correction            ... done

------------------
CARTESIAN GRADIENT
------------------

   1   C   :    0.000000013   -0.000041619    0.000091452
   2   C   :    0.000000048    0.000050877   -0.000056029
   3   C   :   -0.000000209   -0.000112153   -0.000022308
   4   C   :    0.000011171   -0.000018620    0.000020296
   5   C   :   -0.000000030   -0.000011346    0.000005249
   6   C   :   -0.000004183   -0.000003150    0.000001555
   7   C   :    0.000055720   -0.000003534    0.000000824
   8   C   :   -0.000061672    0.000009418   -0.000005205
   9   C   :    0.000025284    0.000031286   -0.000019605
  10   C   :   -0.000013337   -0.000001917    0.000003511
  11   C   :    0.000003814   -0.000000058   -0.000002579
  12   C   :    0.000022273    0.000036769   -0.000034155
  13   N   :    0.000023598   -0.000007255    0.000034370
  14   C   :   -0.000045976   -0.000008399   -0.000015336
  15   C   :    0.000021551   -0.000011884    0.000003903
  16   C   :   -0.000030810   -0.000042581   -0.000025438
  17   C   :   -0.000005995    0.000002647   -0.000004573
  18   C   :    0.000036404    0.000012057    0.000011844
  19   C   :   -0.000007479    0.000002009   -0.000002746
  20   C   :   -0.000006420    0.000004231    0.000003248
  21   C   :    0.000032515   -0.000030005   -0.000008622
  22   C   :   -0.000011390    0.000002811    0.000004365
  23   C   :   -0.000016946    0.000050744    0.000016025
  24   C   :    0.000028675    0.000011532    0.000007097
  25   C   :   -0.000037434    0.000007100   -0.000012643
  26   C   :   -0.000031826   -0.000029873    0.000020549
  27   C   :    0.000000833   -0.000032722    0.000011634
  28   C   :    0.000014552   -0.000012451    0.000006542
  29   C   :    0.000010133    0.000033487   -0.000015441
  30   C   :   -0.000057693    0.000003508   -0.000003242
  31   C   :    0.000057634    0.000002228   -0.000005761
  32   C   :   -0.000009932    0.000033811   -0.000016264
  33   C   :   -0.000014504   -0.000014648    0.000001070
  34   C   :    0.000001553   -0.000003637   -0.000000660
  35   C   :   -0.000055019   -0.000011905   -0.000001982
  36   C   :    0.000062736    0.000011058   -0.000008593
  37   C   :   -0.000025436    0.000027137   -0.000022060
  38   C   :   -0.000001737   -0.000034358    0.000004289
  39   C   :    0.000032259   -0.000032796    0.000020679
  40   C   :   -0.000024845    0.000040225   -0.000042529
  41   N   :   -0.000019020   -0.000013743    0.000048758
  42   C   :    0.000044780   -0.000007874   -0.000018535
  43   C   :   -0.000022823   -0.000012846    0.000006541
  44   C   :    0.000031446   -0.000043902   -0.000025422
  45   C   :    0.000005468    0.000002273   -0.000004306
  46   C   :   -0.000033630    0.000012600    0.000012909
  47   C   :    0.000006227    0.000006065   -0.000003516
  48   C   :    0.000006554    0.000001924    0.000001949
  49   C   :   -0.000032208   -0.000029005   -0.000008690
  50   C   :    0.000011347    0.000001454    0.000004170
  51   C   :    0.000017260    0.000051378    0.000015204
  52   C   :   -0.000028185    0.000012417    0.000010158
  53   C   :    0.000034217    0.000008958   -0.000019720
  54   C   :   -0.000001926    0.000000726   -0.000003565
  55   C   :    0.000015732    0.000001640    0.000010729
  56   C   :   -0.000000498   -0.000007286    0.000010898
  57   C   :   -0.000011779   -0.000020839    0.000015813
  58   H   :   -0.000021836    0.000005783   -0.000025715
  59   H   :    0.000021876    0.000005643   -0.000026267
  60   H   :   -0.000000042    0.000019072   -0.000017332
  61   H   :    0.000024380    0.000033505    0.000013236
  62   H   :   -0.000024496    0.000033870    0.000013660
  63   H   :   -0.000000195    0.000032970   -0.000002481
  64   H   :   -0.000016048   -0.000014505    0.000007669
  65   H   :   -0.000018729    0.000021206   -0.000004833
  66   H   :    0.000020465   -0.000021297    0.000009683
  67   H   :   -0.000013084    0.000003536    0.000000603
  68   H   :    0.000022517   -0.000007073    0.000005977
  69   H   :   -0.000012066    0.000027282    0.000005651
  70   H   :    0.000014820   -0.000007790   -0.000003294
  71   H   :    0.000003379   -0.000006653   -0.000000849
  72   H   :    0.000005033   -0.000013023   -0.000007529
  73   H   :    0.000007218    0.000006884    0.000006585
  74   H   :    0.000005805    0.000004057    0.000001074
  75   H   :    0.000017141    0.000001412    0.000005692
  76   H   :   -0.000018766   -0.000022985   -0.000010225
  77   H   :    0.000022006   -0.000001076   -0.000003389
  78   H   :   -0.000013264    0.000002341    0.000000266
  79   H   :    0.000006110    0.000004931    0.000001571
  80   H   :   -0.000014738    0.000005332    0.000001623
  81   H   :    0.000014401    0.000005519    0.000001917
  82   H   :   -0.000006184    0.000004599    0.000001231
  83   H   :    0.000021974    0.000023296   -0.000004200
  84   H   :   -0.000022520   -0.000020357    0.000013684
  85   H   :    0.000013465    0.000002286   -0.000000244
  86   H   :   -0.000022280   -0.000000259   -0.000003221
  87   H   :    0.000011811    0.000028341    0.000004983
  88   H   :   -0.000014820   -0.000008075   -0.000003186
  89   H   :   -0.000004002   -0.000006626   -0.000000530
  90   H   :   -0.000005424   -0.000013722   -0.000007989
  91   H   :   -0.000007520    0.000007437    0.000006912
  92   H   :   -0.000006183    0.000004331    0.000001108
  93   H   :   -0.000017450    0.000001775    0.000005695
  94   H   :    0.000018819   -0.000024159   -0.000010334
  95   H   :   -0.000022501   -0.000007430    0.000005755
  96   H   :    0.000009851    0.000007422    0.000005998
  97   H   :    0.000016999   -0.000011393    0.000014611

Difference to translation invariance:
           :   -0.0000032239   -0.0000216275   -0.0000003310

Difference to rotation invariance:
           :   -0.0004402217   -0.0000010080    0.0000016102

Norm of the cartesian gradient     ...    0.0003670184
RMS gradient                       ...    0.0000215150
MAX gradient                       ...    0.0001121530

-------
TIMINGS
-------

Total SCF gradient time            ...     2006.676 sec

One electron gradient       ....       1.547 sec  (  0.1%)
Prescreening matrices       ....       5.061 sec  (  0.3%)
RI-J Coulomb gradient       ....       6.020 sec  (  0.3%)
COSX gradient               ....      91.209 sec  (  4.5%)
XC gradient                 ....      15.085 sec  (  0.8%)

Maximum memory used throughout the entire SCFGRAD-calculation: 631.0 MB

                            ***************************************
                            *     ORCA property calculations      *
                            ***************************************

                                    ---------------------
                                    Active property flags
                                    ---------------------
   (+) Dipole Moment


------------------------------------------------------------------------------
                       ORCA ELECTRIC PROPERTIES CALCULATION
------------------------------------------------------------------------------

Dipole Moment Calculation                       ... on
Quadrupole Moment Calculation                   ... off
Polarizability Calculation                      ... off
GBWName                                         ... S0_TDA_SP.gbw
Electron density                                ... S0_TDA_SP.scfp
The origin for moment calculation is the CENTER OF MASS  = (-0.000159,  0.000419  0.004366)

-------------
DIPOLE MOMENT
-------------
                                X             Y             Z
Electronic contribution:     -0.00148      -3.40426       1.67646
Nuclear contribution   :      0.00044       3.26081      -1.59993
                        -----------------------------------------
Total Dipole Moment    :     -0.00103      -0.14345       0.07653
                        -----------------------------------------
Magnitude (a.u.)       :      0.16259
Magnitude (Debye)      :      0.41327



--------------------
Rotational spectrum 
--------------------
 
Rotational constants in cm-1:     0.005237     0.000246     0.000240 
Rotational constants in MHz :   157.013450     7.381441     7.180247 

 Dipole components along the rotational axes: 
x,y,z [a.u.] :    -0.001016    -0.142178     0.078869 
x,y,z [Debye]:    -0.002581    -0.361388     0.200469 

 

                        *** CIS RELAXED DENSITY ***

------------------------------------------------------------------------------
                       ORCA ELECTRIC PROPERTIES CALCULATION
------------------------------------------------------------------------------

Dipole Moment Calculation                       ... on
Quadrupole Moment Calculation                   ... off
Polarizability Calculation                      ... off
GBWName                                         ... S0_TDA_SP.gbw
Electron density                                ... S0_TDA_SP.cisp
The origin for moment calculation is the CENTER OF MASS  = (-0.000159,  0.000419  0.004366)

-------------
DIPOLE MOMENT
-------------
                                X             Y             Z
Electronic contribution:     -0.00469      -2.26976       1.08778
Nuclear contribution   :      0.00044       3.26081      -1.59993
                        -----------------------------------------
Total Dipole Moment    :     -0.00424       0.99105      -0.51215
                        -----------------------------------------
Magnitude (a.u.)       :      1.11557
Magnitude (Debye)      :      2.83555



--------------------
Rotational spectrum 
--------------------
 
Rotational constants in cm-1:     0.005237     0.000246     0.000240 
Rotational constants in MHz :   157.013450     7.381441     7.180247 

 Dipole components along the rotational axes: 
x,y,z [a.u.] :    -0.004369     0.982529    -0.528311 
x,y,z [Debye]:    -0.011106     2.497390    -1.342860 

 

Timings for individual modules:

Sum of individual times         ...     2668.597 sec (=  44.477 min)
GTO integral calculation        ...        7.543 sec (=   0.126 min)   0.3 %
SCF iterations                  ...      453.510 sec (=   7.558 min)  17.0 %
CIS module                      ...      198.929 sec (=   3.315 min)   7.5 %
SCF Gradient evaluation         ...     2008.615 sec (=  33.477 min)  75.3 %
                             ****ORCA TERMINATED NORMALLY****
TOTAL RUN TIME: 0 days 0 hours 44 minutes 32 seconds 159 msec
