
                                 *****************
                                 * O   R   C   A *
                                 *****************

                                            #,                                       
                                            ###                                      
                                            ####                                     
                                            #####                                    
                                            ######                                   
                                           ########,                                 
                                     ,,################,,,,,                         
                               ,,#################################,,                 
                          ,,##########################################,,             
                       ,#########################################, ''#####,          
                    ,#############################################,,   '####,        
                  ,##################################################,,,,####,       
                ,###########''''           ''''###############################       
              ,#####''   ,,,,##########,,,,          '''####'''          '####       
            ,##' ,,,,###########################,,,                        '##       
           ' ,,###''''                  '''############,,,                           
         ,,##''                                '''############,,,,        ,,,,,,###''
      ,#''                                            '''#######################'''  
     '                                                          ''''####''''         
             ,#######,   #######,   ,#######,      ##                                
            ,#'     '#,  ##    ##  ,#'     '#,    #''#        ######   ,####,        
            ##       ##  ##   ,#'  ##            #'  '#       #        #'  '#        
            ##       ##  #######   ##           ,######,      #####,   #    #        
            '#,     ,#'  ##    ##  '#,     ,#' ,#      #,         ##   #,  ,#        
             '#######'   ##     ##  '#######'  #'      '#     #####' # '####'        



                  #######################################################
                  #                        -***-                        #
                  #          Department of theory and spectroscopy      #
                  #    Directorship and core code : Frank Neese         #
                  #        Max Planck Institute fuer Kohlenforschung    #
                  #                Kaiser Wilhelm Platz 1               #
                  #                 D-45470 Muelheim/Ruhr               #
                  #                      Germany                        #
                  #                                                     #
                  #                  All rights reserved                #
                  #                        -***-                        #
                  #######################################################


                         Program Version 5.0.3 -  RELEASE  -


 With contributions from (in alphabetic order):
   Daniel Aravena         : Magnetic Suceptibility
   Michael Atanasov       : Ab Initio Ligand Field Theory (pilot matlab implementation)
   Alexander A. Auer      : GIAO ZORA, VPT2 properties, NMR spectrum
   Ute Becker             : Parallelization
   Giovanni Bistoni       : ED, misc. LED, open-shell LED, HFLD
   Martin Brehm           : Molecular dynamics
   Dmytro Bykov           : SCF Hessian
   Vijay G. Chilkuri      : MRCI spin determinant printing, contributions to CSF-ICE
   Dipayan Datta          : RHF DLPNO-CCSD density
   Achintya Kumar Dutta   : EOM-CC, STEOM-CC
   Dmitry Ganyushin       : Spin-Orbit,Spin-Spin,Magnetic field MRCI
   Miquel Garcia          : C-PCM and meta-GGA Hessian, CC/C-PCM, Gaussian charge scheme
   Yang Guo               : DLPNO-NEVPT2, F12-NEVPT2, CIM, IAO-localization
   Andreas Hansen         : Spin unrestricted coupled pair/coupled cluster methods
   Benjamin Helmich-Paris : MC-RPA, TRAH-SCF, COSX integrals
   Lee Huntington         : MR-EOM, pCC
   Robert Izsak           : Overlap fitted RIJCOSX, COSX-SCS-MP3, EOM
   Marcus Kettner         : VPT2
   Christian Kollmar      : KDIIS, OOCD, Brueckner-CCSD(T), CCSD density, CASPT2, CASPT2-K
   Simone Kossmann        : Meta GGA functionals, TD-DFT gradient, OOMP2, MP2 Hessian
   Martin Krupicka        : Initial AUTO-CI
   Lucas Lang             : DCDCAS
   Marvin Lechner         : AUTO-CI (C++ implementation), FIC-MRCC
   Dagmar Lenk            : GEPOL surface, SMD
   Dimitrios Liakos       : Extrapolation schemes; Compound Job, initial MDCI parallelization
   Dimitrios Manganas     : Further ROCIS development; embedding schemes
   Dimitrios Pantazis     : SARC Basis sets
   Anastasios Papadopoulos: AUTO-CI, single reference methods and gradients
   Taras Petrenko         : DFT Hessian,TD-DFT gradient, ASA, ECA, R-Raman, ABS, FL, XAS/XES, NRVS
   Peter Pinski           : DLPNO-MP2, DLPNO-MP2 Gradient
   Christoph Reimann      : Effective Core Potentials
   Marius Retegan         : Local ZFS, SOC
   Christoph Riplinger    : Optimizer, TS searches, QM/MM, DLPNO-CCSD(T), (RO)-DLPNO pert. Triples
   Tobias Risthaus        : Range-separated hybrids, TD-DFT gradient, RPA, STAB
   Michael Roemelt        : Original ROCIS implementation
   Masaaki Saitow         : Open-shell DLPNO-CCSD energy and density
   Barbara Sandhoefer     : DKH picture change effects
   Avijit Sen             : IP-ROCIS
   Kantharuban Sivalingam : CASSCF convergence, NEVPT2, FIC-MRCI
   Bernardo de Souza      : ESD, SOC TD-DFT
   Georgi Stoychev        : AutoAux, RI-MP2 NMR, DLPNO-MP2 response
   Willem Van den Heuvel  : Paramagnetic NMR
   Boris Wezisla          : Elementary symmetry handling
   Frank Wennmohs         : Technical directorship


 We gratefully acknowledge several colleagues who have allowed us to
 interface, adapt or use parts of their codes:
   Stefan Grimme, W. Hujo, H. Kruse, P. Pracht,  : VdW corrections, initial TS optimization,
                  C. Bannwarth, S. Ehlert          DFT functionals, gCP, sTDA/sTD-DF
   Ed Valeev, F. Pavosevic, A. Kumar             : LibInt (2-el integral package), F12 methods
   Garnet Chan, S. Sharma, J. Yang, R. Olivares  : DMRG
   Ulf Ekstrom                                   : XCFun DFT Library
   Mihaly Kallay                                 : mrcc  (arbitrary order and MRCC methods)
   Jiri Pittner, Ondrej Demel                    : Mk-CCSD
   Frank Weinhold                                : gennbo (NPA and NBO analysis)
   Christopher J. Cramer and Donald G. Truhlar   : smd solvation model
   Lars Goerigk                                  : TD-DFT with DH, B97 family of functionals
   V. Asgeirsson, H. Jonsson                     : NEB implementation
   FAccTs GmbH                                   : IRC, NEB, NEB-TS, DLPNO-Multilevel, CI-OPT
                                                   MM, QMMM, 2- and 3-layer-ONIOM, Crystal-QMMM,
                                                   LR-CPCM, SF, NACMEs, symmetry and pop. for TD-DFT,
                                                   nearIR, NL-DFT gradient (VV10), updates on ESD,
                                                   ML-optimized integration grids
   S Lehtola, MJT Oliveira, MAL Marques          : LibXC Library
   Liviu Ungur et al                             : ANISO software


 Your calculation uses the libint2 library for the computation of 2-el integrals
 For citations please refer to: http://libint.valeyev.net

 Your ORCA version has been built with support for libXC version: 5.1.0
 For citations please refer to: https://tddft.org/programs/libxc/

 This ORCA versions uses:
   CBLAS   interface :  Fast vector & matrix operations
   LAPACKE interface :  Fast linear algebra routines
   SCALAPACK package :  Parallel linear algebra routines
   Shared memory     :  Shared parallel matrices
   BLAS/LAPACK       :  OpenBLAS 0.3.15  USE64BITINT DYNAMIC_ARCH NO_AFFINITY SkylakeX SINGLE_THREADED
        Core in use  :  SkylakeX
   Copyright (c) 2011-2014, The OpenBLAS Project




***************************************
The coordinates will be read from file: S0_XTB_OPT_XYZ.xyz
***************************************


Your calculation utilizes the atom-pairwise dispersion correction
with the Becke-Johnson damping scheme (D3BJ)
Cite in your paper:
S.Grimme, S.Ehrlich, L.Goerigk, J Comput Chem, (2011), 32, 1456–1465 
S.Grimme, J.Antony, S.Ehrlich and H.Krieg, J.Chem.Phys., 132, (2010), 154104 
   

================================================================================

----- Orbital basis set information -----
Your calculation utilizes the basis: def2-SVP
   F. Weigend and R. Ahlrichs, Phys. Chem. Chem. Phys. 7, 3297 (2005).

----- AuxJ basis set information -----
Your calculation utilizes the auxiliary basis: def2/J
   F. Weigend, Phys. Chem. Chem. Phys. 8, 1057 (2006).

================================================================================
                                        WARNINGS
                       Please study these warnings very carefully!
================================================================================

INFO   : Checking CIS options ...

WARNING: CIS/ROCIS methods need fully converged wavefunctions
  ===> : Setting SCFConvForced true
         You can overwrite this default with %scf ConvForced false 


INFO   : the flag for use of the SHARK integral package has been found!

================================================================================
                                       INPUT FILE
================================================================================
NAME = /dev/shm/slurm.malcolms.9850266/9850266/S1/S1_OPT.inp
|  1> ! PBE0 def2-SVP D3BJ def2/J RIJCOSX tightSCF noautostart miniprint nopop defgrid3 Opt
|  2> %maxcore    4000
|  3> %pal    nprocs  40  end
|  4> %geom	Convergence	loose
|  5> 	MaxIter	5
|  6> end
|  7> %tddft  PrintLevel  3
|  8> 	IRootMult	Singlet
|  9> 	NRoots	5
| 10> 	IRoot	1
| 11> 	TDA	True
| 12>         MaxDim  10
| 13> end
| 14> * xyzfile 0 1 S0_XTB_OPT_XYZ.xyz
| 15> 
| 16> 
| 17>                          ****END OF INPUT****
================================================================================

                       *****************************
                       * Geometry Optimization Run *
                       *****************************

Geometry optimization settings:
Update method            Update   .... BFGS
Choice of coordinates    CoordSys .... Z-matrix Internals
Initial Hessian          InHess   .... Almoef's Model

Convergence Tolerances:
Energy Change            TolE     ....  3.0000e-05 Eh
Max. Gradient            TolMAXG  ....  2.0000e-03 Eh/bohr
RMS Gradient             TolRMSG  ....  5.0000e-04 Eh/bohr
Max. Displacement        TolMAXD  ....  1.0000e-02 bohr
RMS Displacement         TolRMSD  ....  7.0000e-03 bohr
Strict Convergence                ....  False
------------------------------------------------------------------------------
                        ORCA OPTIMIZATION COORDINATE SETUP
------------------------------------------------------------------------------

The optimization will be done in new redundant internal coordinates
Making redundant internal coordinates   ...  (new redundants) done
Evaluating the initial hessian          ...  (Almloef) done
Evaluating the coordinates              ...  done
Calculating the B-matrix                .... done
Calculating the G-matrix                .... done
Diagonalizing the G-matrix              .... done
Small eigenvalue found = 1.364e-04
Small eigenvalue found = 1.005e-03
Small eigenvalue found = 2.754e-03
Small eigenvalue found = 3.695e-03
Small eigenvalue found = 5.026e-03
Small eigenvalue found = 5.434e-03
Small eigenvalue found = 1.024e-02
Small eigenvalue found = 1.244e-02
Small eigenvalue found = 1.621e-02
Small eigenvalue found = 1.746e-02
Small eigenvalue found = 1.974e-02
Small eigenvalue found = 2.086e-02
Small eigenvalue found = 2.812e-02
The first mode is                       ....  269
The number of degrees of freedom        ....  285

    -----------------------------------------------------------------
                    Redundant Internal Coordinates


    -----------------------------------------------------------------
         Definition                    Initial Value    Approx d2E/dq
    -----------------------------------------------------------------
      1. B(C   1,C   0)                  1.3420         0.745380   
      2. B(C   2,C   1)                  1.4498         0.501528   
      3. B(C   3,C   2)                  1.4011         0.599762   
      4. B(C   4,C   3)                  1.3818         0.643802   
      5. B(C   5,C   4)                  1.3850         0.636270   
      6. B(C   6,C   5)                  1.3970         0.608980   
      7. B(C   7,C   6)                  1.4771         0.453717   
      8. B(C   8,C   7)                  1.3966         0.609934   
      9. B(C   9,C   8)                  1.3836         0.639741   
     10. B(C  10,C   9)                  1.3840         0.638726   
     11. B(C  11,C  10)                  1.3970         0.608838   
     12. B(C  12,C  11)                  1.4756         0.456265   
     13. B(C  13,C  12)                  1.3978         0.607100   
     14. B(C  14,C  13)                  1.3851         0.636050   
     15. B(C  15,C  14)                  1.3817         0.644236   
     16. B(C  16,C  15)                  1.4011         0.599778   
     17. B(C  17,C  16)                  1.4513         0.498845   
     18. B(C  18,C  17)                  1.3402         0.750175   
     19. B(C  19,C  18)                  1.4504         0.500512   
     20. B(C  20,C  19)                  1.3973         0.608357   
     21. B(C  21,C  20)                  1.3797         0.648815   
     22. B(C  22,C  21)                  1.3927         0.618559   
     23. B(N  23,C  22)                  1.3993         0.540801   
     24. B(C  24,N  23)                  1.3828         0.574495   
     25. B(C  25,C  24)                  1.3877         0.630165   
     26. B(C  26,C  25)                  1.3810         0.645895   
     27. B(C  27,C  26)                  1.3924         0.619271   
     28. B(C  28,C  27)                  1.3798         0.648668   
     29. B(C  29,C  28)                  1.3881         0.629059   
     30. B(C  29,C  24)                  1.4126         0.574999   
     31. B(C  30,C  29)                  1.4350         0.529595   
     32. B(C  31,C  30)                  1.3877         0.630191   
     33. B(C  32,C  31)                  1.3801         0.647900   
     34. B(C  33,C  32)                  1.3926         0.618808   
     35. B(C  34,C  33)                  1.3817         0.644058   
     36. B(C  35,C  34)                  1.3871         0.631422   
     37. B(C  35,C  30)                  1.4133         0.573498   
     38. B(C  35,N  23)                  1.3821         0.576174   
     39. B(C  36,C  22)                  1.3944         0.614729   
     40. B(C  37,C  36)                  1.3770         0.655429   
     41. B(C  37,C  19)                  1.3976         0.607570   
     42. B(N  38,C  16)                  1.3289         0.700525   
     43. B(N  38,C  12)                  1.3230         0.715739   
     44. B(N  39,C  11)                  1.3255         0.709169   
     45. B(N  39,C   7)                  1.3227         0.716538   
     46. B(N  40,C   6)                  1.3213         0.720345   
     47. B(N  40,C   2)                  1.3309         0.695303   
     48. B(C  41,C   0)                  1.4469         0.506884   
     49. B(C  42,C  41)                  1.3989         0.604805   
     50. B(C  43,C  42)                  1.3789         0.650696   
     51. B(C  44,C  43)                  1.3930         0.617928   
     52. B(N  45,C  44)                  1.3975         0.544448   
     53. B(C  46,N  45)                  1.3835         0.573091   
     54. B(C  47,C  46)                  1.3877         0.630129   
     55. B(C  48,C  47)                  1.3810         0.645826   
     56. B(C  49,C  48)                  1.3923         0.619516   
     57. B(C  50,C  49)                  1.3798         0.648597   
     58. B(C  51,C  50)                  1.3881         0.629228   
     59. B(C  51,C  46)                  1.4124         0.575467   
     60. B(C  52,C  51)                  1.4351         0.529472   
     61. B(C  53,C  52)                  1.3876         0.630236   
     62. B(C  54,C  53)                  1.3801         0.648003   
     63. B(C  55,C  54)                  1.3925         0.619189   
     64. B(C  56,C  55)                  1.3818         0.643934   
     65. B(C  57,C  56)                  1.3872         0.631320   
     66. B(C  57,C  52)                  1.4132         0.573801   
     67. B(C  57,N  45)                  1.3826         0.574980   
     68. B(C  58,C  44)                  1.3953         0.612856   
     69. B(C  59,C  58)                  1.3762         0.657341   
     70. B(C  59,C  41)                  1.3989         0.604757   
     71. B(H  60,C   0)                  1.0821         0.370654   
     72. B(H  61,C   1)                  1.0812         0.371899   
     73. B(H  62,C   3)                  1.0799         0.373759   
     74. B(H  63,C   4)                  1.0812         0.371931   
     75. B(H  64,C   5)                  1.0791         0.374827   
     76. B(H  65,C   8)                  1.0793         0.374590   
     77. B(H  66,C   9)                  1.0812         0.371980   
     78. B(H  67,C  10)                  1.0788         0.375196   
     79. B(H  68,C  13)                  1.0786         0.375437   
     80. B(H  69,C  14)                  1.0812         0.371898   
     81. B(H  70,C  15)                  1.0798         0.373881   
     82. B(H  71,C  17)                  1.0819         0.370990   
     83. B(H  72,H  60)                  2.9737         0.000068   
     84. B(H  72,C  18)                  1.0820         0.370788   
     85. B(H  73,C  20)                  1.0802         0.373319   
     86. B(H  74,C  21)                  1.0792         0.374683   
     87. B(H  75,C  25)                  1.0796         0.374134   
     88. B(H  76,C  26)                  1.0798         0.373901   
     89. B(H  77,C  27)                  1.0796         0.374065   
     90. B(H  78,C  28)                  1.0794         0.374373   
     91. B(H  79,C  31)                  1.0793         0.374507   
     92. B(H  80,C  32)                  1.0800         0.373530   
     93. B(H  81,C  33)                  1.0804         0.373044   
     94. B(H  82,C  34)                  1.0794         0.374357   
     95. B(H  83,C  36)                  1.0800         0.373595   
     96. B(H  84,C  37)                  1.0793         0.374525   
     97. B(H  85,C  42)                  1.0802         0.373306   
     98. B(H  86,H  75)                  2.4755         0.000425   
     99. B(H  86,C  43)                  1.0788         0.375158   
    100. B(H  87,H  74)                  2.5961         0.000273   
    101. B(H  87,C  47)                  1.0794         0.374356   
    102. B(H  88,C  48)                  1.0797         0.373982   
    103. B(H  89,H  79)                  3.1473         0.000036   
    104. B(H  89,C  49)                  1.0797         0.373972   
    105. B(H  90,C  50)                  1.0795         0.374283   
    106. B(H  91,H  77)                  3.1630         0.000034   
    107. B(H  91,C  53)                  1.0794         0.374440   
    108. B(H  92,C  54)                  1.0800         0.373547   
    109. B(H  93,C  55)                  1.0804         0.373081   
    110. B(H  94,C  56)                  1.0793         0.374601   
    111. B(H  95,C  58)                  1.0799         0.373721   
    112. B(H  96,C  59)                  1.0788         0.375214   
    113. A(C   1,C   0,H  60)          117.0626         0.365948   
    114. A(C  41,C   0,H  60)          116.4645         0.342801   
    115. A(C   1,C   0,C  41)          126.4719         0.432720   
    116. A(C   0,C   1,C   2)          122.8794         0.431895   
    117. A(C   2,C   1,H  61)          115.3044         0.342384   
    118. A(C   0,C   1,H  61)          121.8153         0.366158   
    119. A(C   1,C   2,N  40)          117.7913         0.423762   
    120. A(C   1,C   2,C   3)          120.5461         0.415434   
    121. A(C   3,C   2,N  40)          121.6625         0.437594   
    122. A(C   4,C   3,H  62)          120.8660         0.357421   
    123. A(C   2,C   3,C   4)          118.8606         0.434416   
    124. A(C   2,C   3,H  62)          120.2733         0.353151   
    125. A(C   5,C   4,H  63)          120.4093         0.356410   
    126. A(C   3,C   4,H  63)          120.5494         0.357123   
    127. A(C   3,C   4,C   5)          119.0412         0.439067   
    128. A(C   4,C   5,H  64)          120.9776         0.356880   
    129. A(C   6,C   5,H  64)          120.7316         0.354235   
    130. A(C   4,C   5,C   6)          118.2754         0.434689   
    131. A(C   5,C   6,N  40)          122.6404         0.441612   
    132. A(C   5,C   6,C   7)          120.9163         0.409219   
    133. A(C   7,C   6,N  40)          116.4433         0.418888   
    134. A(C   6,C   7,N  39)          116.6612         0.418493   
    135. A(C   6,C   7,C   8)          120.8678         0.409332   
    136. A(C   8,C   7,N  39)          122.4686         0.441314   
    137. A(C   9,C   8,H  65)          120.9535         0.357172   
    138. A(C   7,C   8,C   9)          118.2727         0.435238   
    139. A(C   7,C   8,H  65)          120.7484         0.354291   
    140. A(C   8,C   9,C  10)          119.1327         0.438871   
    141. A(C  10,C   9,H  66)          120.3990         0.356651   
    142. A(C   8,C   9,H  66)          120.4670         0.356748   
    143. A(C   9,C  10,H  67)          120.4112         0.357174   
    144. A(C   9,C  10,C  11)          118.5378         0.434972   
    145. A(C  11,C  10,H  67)          121.0338         0.354280   
    146. A(C  10,C  11,N  39)          122.0850         0.440347   
    147. A(C  10,C  11,C  12)          121.7406         0.409608   
    148. A(C  12,C  11,N  39)          116.1678         0.418140   
    149. A(C  13,C  12,N  38)          122.2508         0.440854   
    150. A(C  11,C  12,N  38)          116.0083         0.418827   
    151. A(C  11,C  12,C  13)          121.7407         0.409400   
    152. A(C  12,C  13,C  14)          118.3999         0.434420   
    153. A(C  14,C  13,H  68)          120.4871         0.356958   
    154. A(C  12,C  13,H  68)          121.1036         0.354147   
    155. A(C  13,C  14,H  69)          120.3191         0.356384   
    156. A(C  13,C  14,C  15)          119.1427         0.439093   
    157. A(C  15,C  14,H  69)          120.5382         0.357159   
    158. A(C  14,C  15,H  70)          120.9770         0.357482   
    159. A(C  14,C  15,C  16)          118.6718         0.434471   
    160. A(C  16,C  15,H  70)          120.3445         0.353172   
    161. A(C  17,C  16,N  38)          117.6381         0.423923   
    162. A(C  15,C  16,N  38)          121.7427         0.438187   
    163. A(C  15,C  16,C  17)          120.6181         0.415040   
    164. A(C  16,C  17,H  71)          115.6647         0.341936   
    165. A(C  16,C  17,C  18)          123.0076         0.431976   
    166. A(C  18,C  17,H  71)          121.2975         0.366407   
    167. A(C  19,C  18,H  72)          117.1519         0.342096   
    168. A(C  17,C  18,H  72)          117.7470         0.366372   
    169. A(C  17,C  18,C  19)          125.0891         0.432235   
    170. A(C  20,C  19,C  37)          117.9817         0.431017   
    171. A(C  18,C  19,C  37)          121.8535         0.416241   
    172. A(C  18,C  19,C  20)          120.1585         0.416337   
    173. A(C  19,C  20,H  73)          119.1353         0.353932   
    174. A(C  21,C  20,H  73)          119.6459         0.357821   
    175. A(C  19,C  20,C  21)          121.2185         0.436140   
    176. A(C  20,C  21,C  22)          120.2112         0.437449   
    177. A(C  22,C  21,H  74)          119.6493         0.355151   
    178. A(C  20,C  21,H  74)          120.1093         0.358043   
    179. A(N  23,C  22,C  36)          119.5447         0.420162   
    180. A(C  21,C  22,C  36)          119.0687         0.433218   
    181. A(C  21,C  22,N  23)          121.3864         0.420628   
    182. A(C  22,N  23,C  24)          125.2465         0.412443   
    183. A(C  24,N  23,C  35)          108.2161         0.417115   
    184. A(C  22,N  23,C  35)          126.1749         0.412657   
    185. A(C  25,C  24,C  29)          120.8305         0.429482   
    186. A(N  23,C  24,C  29)          109.3806         0.419685   
    187. A(N  23,C  24,C  25)          129.7363         0.426613   
    188. A(C  24,C  25,C  26)          118.0144         0.438561   
    189. A(C  26,C  25,H  75)          120.5938         0.357679   
    190. A(C  24,C  25,H  75)          121.3916         0.356184   
    191. A(C  25,C  26,C  27)          121.4383         0.437184   
    192. A(C  27,C  26,H  76)          119.3122         0.355094   
    193. A(C  25,C  26,H  76)          119.2468         0.357641   
    194. A(C  26,C  27,C  28)          120.8825         0.437522   
    195. A(C  28,C  27,H  77)          119.9496         0.357929   
    196. A(C  26,C  27,H  77)          119.1650         0.355121   
    197. A(C  27,C  28,C  29)          118.6673         0.438761   
    198. A(C  29,C  28,H  78)          120.2678         0.356117   
    199. A(C  27,C  28,H  78)          121.0644         0.357979   
    200. A(C  24,C  29,C  28)          120.1343         0.429346   
    201. A(C  28,C  29,C  30)          133.3673         0.423069   
    202. A(C  24,C  29,C  30)          106.4981         0.416343   
    203. A(C  31,C  30,C  35)          120.1459         0.429284   
    204. A(C  29,C  30,C  35)          106.5985         0.416149   
    205. A(C  29,C  30,C  31)          133.2506         0.423205   
    206. A(C  30,C  31,C  32)          118.6390         0.438809   
    207. A(C  32,C  31,H  79)          121.0295         0.357929   
    208. A(C  30,C  31,H  79)          120.3311         0.356247   
    209. A(C  31,C  32,C  33)          120.8568         0.437369   
    210. A(C  33,C  32,H  80)          119.2602         0.354989   
    211. A(C  31,C  32,H  80)          119.8804         0.357770   
    212. A(C  34,C  33,H  81)          119.1818         0.357329   
    213. A(C  32,C  33,C  34)          121.5406         0.436901   
    214. A(C  32,C  33,H  81)          119.2765         0.354911   
    215. A(C  33,C  34,C  35)          117.8684         0.438493   
    216. A(C  33,C  34,H  82)          120.7435         0.357542   
    217. A(C  35,C  34,H  82)          121.3820         0.356341   
    218. A(N  23,C  35,C  30)          109.3051         0.419707   
    219. A(C  30,C  35,C  34)          120.9274         0.429434   
    220. A(N  23,C  35,C  34)          129.7109         0.426989   
    221. A(C  22,C  36,C  37)          120.4261         0.437759   
    222. A(C  37,C  36,H  83)          120.2402         0.358484   
    223. A(C  22,C  36,H  83)          119.3296         0.354602   
    224. A(C  19,C  37,C  36)          121.0860         0.436835   
    225. A(C  36,C  37,H  84)          119.1811         0.358636   
    226. A(C  19,C  37,H  84)          119.7253         0.354048   
    227. A(C  12,N  38,C  16)          119.7537         0.449449   
    228. A(C   7,N  39,C  11)          119.4899         0.450542   
    229. A(C   2,N  40,C   6)          119.5188         0.449362   
    230. A(C  42,C  41,C  59)          117.6764         0.430206   
    231. A(C   0,C  41,C  59)          122.8981         0.416834   
    232. A(C   0,C  41,C  42)          119.4216         0.416840   
    233. A(C  43,C  42,H  85)          119.4646         0.357995   
    234. A(C  41,C  42,H  85)          119.0951         0.353579   
    235. A(C  41,C  42,C  43)          121.4304         0.435907   
    236. A(C  44,C  43,H  86)          119.6482         0.355165   
    237. A(C  42,C  43,H  86)          120.1023         0.358297   
    238. A(C  42,C  43,C  44)          120.2232         0.437597   
    239. A(N  45,C  44,C  58)          119.6229         0.420437   
    240. A(C  43,C  44,C  58)          118.9072         0.432901   
    241. A(C  43,C  44,N  45)          121.4700         0.421056   
    242. A(C  46,N  45,C  57)          108.2171         0.416780   
    243. A(C  44,N  45,C  57)          126.3679         0.412998   
    244. A(C  44,N  45,C  46)          125.1654         0.412756   
    245. A(C  47,C  46,C  51)          120.7918         0.429540   
    246. A(N  45,C  46,C  51)          109.3595         0.419562   
    247. A(N  45,C  46,C  47)          129.7929         0.426422   
    248. A(C  48,C  47,H  87)          120.4943         0.357709   
    249. A(C  46,C  47,H  87)          121.4844         0.356217   
    250. A(C  46,C  47,C  48)          118.0200         0.438548   
    251. A(C  49,C  48,H  88)          119.3358         0.355131   
    252. A(C  47,C  48,H  88)          119.2100         0.357648   
    253. A(C  47,C  48,C  49)          121.4505         0.437207   
    254. A(C  50,C  49,H  89)          119.9504         0.357907   
    255. A(C  48,C  49,H  89)          119.1854         0.355129   
    256. A(C  48,C  49,C  50)          120.8604         0.437544   
    257. A(C  49,C  50,H  90)          121.0617         0.357958   
    258. A(C  51,C  50,H  90)          120.2771         0.356118   
    259. A(C  49,C  50,C  51)          118.6610         0.438774   
    260. A(C  50,C  51,C  52)          133.3136         0.423071   
    261. A(C  46,C  51,C  52)          106.5190         0.416386   
    262. A(C  46,C  51,C  50)          120.1671         0.429430   
    263. A(C  53,C  52,C  57)          120.1937         0.429330   
    264. A(C  51,C  52,C  57)          106.6229         0.416171   
    265. A(C  51,C  52,C  53)          133.1790         0.423193   
    266. A(C  52,C  53,C  54)          118.6445         0.438828   
    267. A(C  54,C  53,H  91)          121.0246         0.357927   
    268. A(C  52,C  53,H  91)          120.3305         0.356240   
    269. A(C  53,C  54,C  55)          120.8195         0.437430   
    270. A(C  55,C  54,H  92)          119.2767         0.355029   
    271. A(C  53,C  54,H  92)          119.9004         0.357782   
    272. A(C  54,C  55,C  56)          121.5552         0.436934   
    273. A(C  56,C  55,H  93)          119.1651         0.357323   
    274. A(C  54,C  55,H  93)          119.2786         0.354954   
    275. A(C  55,C  56,C  57)          117.9025         0.438465   
    276. A(C  57,C  56,H  94)          121.4573         0.356370   
    277. A(C  55,C  56,H  94)          120.6335         0.357570   
    278. A(C  52,C  57,C  56)          120.8519         0.429462   
    279. A(N  45,C  57,C  56)          129.8014         0.426818   
    280. A(N  45,C  57,C  52)          109.2811         0.419592   
    281. A(C  44,C  58,C  59)          120.5479         0.437748   
    282. A(C  59,C  58,H  95)          120.1489         0.358682   
    283. A(C  44,C  58,H  95)          119.2975         0.354439   
    284. A(C  41,C  59,C  58)          121.1807         0.436700   
    285. A(C  58,C  59,H  96)          118.7852         0.358926   
    286. A(C  41,C  59,H  96)          120.0338         0.353880   
    287. D(H  61,C   1,C   0,C  41)     -0.9565         0.039575   
    288. D(C   2,C   1,C   0,H  60)     -0.2165         0.039575   
    289. D(H  61,C   1,C   0,H  60)    179.4192         0.039575   
    290. D(C   2,C   1,C   0,C  41)    179.4077         0.039575   
    291. D(C   3,C   2,C   1,H  61)     -1.6152         0.017134   
    292. D(N  40,C   2,C   1,H  61)    178.4888         0.017134   
    293. D(C   3,C   2,C   1,C   0)    178.0424         0.017134   
    294. D(N  40,C   2,C   1,C   0)     -1.8536         0.017134   
    295. D(H  62,C   3,C   2,C   1)      0.1488         0.024797   
    296. D(H  62,C   3,C   2,N  40)   -179.9592         0.024797   
    297. D(C   4,C   3,C   2,N  40)     -0.0630         0.024797   
    298. D(C   4,C   3,C   2,C   1)   -179.9549         0.024797   
    299. D(C   5,C   4,C   3,H  62)   -179.7861         0.028821   
    300. D(C   5,C   4,C   3,C   2)      0.3183         0.028821   
    301. D(H  63,C   4,C   3,H  62)      0.3035         0.028821   
    302. D(H  63,C   4,C   3,C   2)   -179.5921         0.028821   
    303. D(H  64,C   5,C   4,C   3)   -178.8863         0.028106   
    304. D(H  64,C   5,C   4,H  63)      1.0242         0.028106   
    305. D(C   6,C   5,C   4,H  63)    179.6056         0.028106   
    306. D(C   6,C   5,C   4,C   3)     -0.3049         0.028106   
    307. D(N  40,C   6,C   5,C   4)      0.0353         0.025608   
    308. D(C   7,C   6,C   5,H  64)     -1.3315         0.025608   
    309. D(N  40,C   6,C   5,H  64)    178.6204         0.025608   
    310. D(C   7,C   6,C   5,C   4)   -179.9165         0.025608   
    311. D(N  39,C   7,C   6,N  40)    -40.5663         0.014029   
    312. D(N  39,C   7,C   6,C   5)    139.3884         0.014029   
    313. D(C   8,C   7,C   6,N  40)    138.8914         0.014029   
    314. D(C   8,C   7,C   6,C   5)    -41.1539         0.014029   
    315. D(H  65,C   8,C   7,C   6)     -0.3132         0.025693   
    316. D(C   9,C   8,C   7,C   6)   -178.4962         0.025693   
    317. D(C   9,C   8,C   7,N  39)      0.9293         0.025693   
    318. D(H  65,C   8,C   7,N  39)    179.1123         0.025693   
    319. D(C  10,C   9,C   8,C   7)     -0.8620         0.028434   
    320. D(H  66,C   9,C   8,H  65)      0.5342         0.028434   
    321. D(H  66,C   9,C   8,C   7)    178.7133         0.028434   
    322. D(C  10,C   9,C   8,H  65)   -179.0411         0.028434   
    323. D(H  67,C  10,C   9,H  66)     -1.1098         0.028338   
    324. D(H  67,C  10,C   9,C   8)    178.4657         0.028338   
    325. D(C  11,C  10,C   9,C   8)     -0.0420         0.028338   
    326. D(C  11,C  10,C   9,H  66)   -179.6175         0.028338   
    327. D(N  39,C  11,C  10,H  67)   -177.5026         0.025595   
    328. D(N  39,C  11,C  10,C   9)      0.9954         0.025595   
    329. D(C  12,C  11,C  10,H  67)      1.5259         0.025595   
    330. D(C  12,C  11,C  10,C   9)   -179.9760         0.025595   
    331. D(N  38,C  12,C  11,N  39)     26.7548         0.014184   
    332. D(N  38,C  12,C  11,C  10)   -152.3282         0.014184   
    333. D(C  13,C  12,C  11,N  39)   -153.0754         0.014184   
    334. D(C  13,C  12,C  11,C  10)     27.8416         0.014184   
    335. D(H  68,C  13,C  12,N  38)   -177.1779         0.025441   
    336. D(H  68,C  13,C  12,C  11)      2.6416         0.025441   
    337. D(C  14,C  13,C  12,N  38)      1.7136         0.025441   
    338. D(C  14,C  13,C  12,C  11)   -178.4669         0.025441   
    339. D(H  69,C  14,C  13,H  68)     -1.3839         0.028085   
    340. D(H  69,C  14,C  13,C  12)    179.7175         0.028085   
    341. D(C  15,C  14,C  13,H  68)    178.5836         0.028085   
    342. D(C  15,C  14,C  13,C  12)     -0.3150         0.028085   
    343. D(H  70,C  15,C  14,H  69)     -0.4578         0.028862   
    344. D(H  70,C  15,C  14,C  13)    179.5747         0.028862   
    345. D(C  16,C  15,C  14,H  69)    178.6033         0.028862   
    346. D(C  16,C  15,C  14,C  13)     -1.3642         0.028862   
    347. D(N  38,C  16,C  15,C  14)      1.8470         0.024798   
    348. D(C  17,C  16,C  15,H  70)      0.5206         0.024798   
    349. D(C  17,C  16,C  15,C  14)   -178.5466         0.024798   
    350. D(N  38,C  16,C  15,H  70)   -179.0858         0.024798   
    351. D(H  71,C  17,C  16,N  38)    169.4869         0.016949   
    352. D(H  71,C  17,C  16,C  15)    -10.1352         0.016949   
    353. D(C  18,C  17,C  16,N  38)    -12.4910         0.016949   
    354. D(C  18,C  17,C  16,C  15)    167.8868         0.016949   
    355. D(H  72,C  18,C  17,H  71)    175.8745         0.040135   
    356. D(H  72,C  18,C  17,C  16)     -2.0390         0.040135   
    357. D(C  19,C  18,C  17,H  71)     -2.8230         0.040135   
    358. D(C  19,C  18,C  17,C  16)    179.2635         0.040135   
    359. D(C  37,C  19,C  18,H  72)    157.0646         0.017064   
    360. D(C  20,C  19,C  18,H  72)    -22.0091         0.017064   
    361. D(C  20,C  19,C  18,C  17)    156.6954         0.017064   
    362. D(C  37,C  19,C  18,C  17)    -24.2309         0.017064   
    363. D(H  73,C  20,C  19,C  37)   -179.9309         0.025553   
    364. D(H  73,C  20,C  19,C  18)     -0.8219         0.025553   
    365. D(C  21,C  20,C  19,C  37)     -0.1112         0.025553   
    366. D(C  21,C  20,C  19,C  18)    178.9978         0.025553   
    367. D(H  74,C  21,C  20,H  73)      1.2889         0.029303   
    368. D(H  74,C  21,C  20,C  19)   -178.5299         0.029303   
    369. D(C  22,C  21,C  20,H  73)    179.2831         0.029303   
    370. D(C  22,C  21,C  20,C  19)     -0.5357         0.029303   
    371. D(C  36,C  22,C  21,H  74)    179.0454         0.026468   
    372. D(C  36,C  22,C  21,C  20)      1.0419         0.026468   
    373. D(N  23,C  22,C  21,H  74)     -0.7921         0.026468   
    374. D(N  23,C  22,C  21,C  20)   -178.7956         0.026468   
    375. D(C  35,N  23,C  22,C  36)    128.3748         0.023270   
    376. D(C  35,N  23,C  22,C  21)    -51.7885         0.023270   
    377. D(C  24,N  23,C  22,C  36)    -43.8873         0.023270   
    378. D(C  24,N  23,C  22,C  21)    135.9494         0.023270   
    379. D(C  29,C  24,N  23,C  35)      0.1160         0.026439   
    380. D(C  29,C  24,N  23,C  22)    173.5459         0.026439   
    381. D(C  25,C  24,N  23,C  35)    177.4459         0.026439   
    382. D(C  25,C  24,N  23,C  22)     -9.1243         0.026439   
    383. D(H  75,C  25,C  24,C  29)    177.8668         0.027535   
    384. D(H  75,C  25,C  24,N  23)      0.8004         0.027535   
    385. D(C  26,C  25,C  24,C  29)     -1.9381         0.027535   
    386. D(C  26,C  25,C  24,N  23)   -179.0045         0.027535   
    387. D(H  76,C  26,C  25,H  75)      0.2109         0.029021   
    388. D(H  76,C  26,C  25,C  24)   -179.9826         0.029021   
    389. D(C  27,C  26,C  25,H  75)   -179.1811         0.029021   
    390. D(C  27,C  26,C  25,C  24)      0.6254         0.029021   
    391. D(H  77,C  27,C  26,H  76)      0.7741         0.026533   
    392. D(H  77,C  27,C  26,C  25)   -179.8343         0.026533   
    393. D(C  28,C  27,C  26,H  76)   -178.6033         0.026533   
    394. D(C  28,C  27,C  26,C  25)      0.7883         0.026533   
    395. D(H  78,C  28,C  27,H  77)     -0.4951         0.029288   
    396. D(H  78,C  28,C  27,C  26)    178.8774         0.029288   
    397. D(C  29,C  28,C  27,H  77)    179.7666         0.029288   
    398. D(C  29,C  28,C  27,C  26)     -0.8608         0.029288   
    399. D(C  30,C  29,C  28,H  78)     -0.4255         0.027432   
    400. D(C  30,C  29,C  28,C  27)    179.3149         0.027432   
    401. D(C  24,C  29,C  28,H  78)    179.8107         0.027432   
    402. D(C  24,C  29,C  28,C  27)     -0.4489         0.027432   
    403. D(C  30,C  29,C  24,C  25)   -177.9360         0.022697   
    404. D(C  30,C  29,C  24,N  23)     -0.3271         0.022697   
    405. D(C  28,C  29,C  24,C  25)      1.8849         0.022697   
    406. D(C  28,C  29,C  24,N  23)    179.4938         0.022697   
    407. D(C  35,C  30,C  29,C  28)   -179.3807         0.019144   
    408. D(C  35,C  30,C  29,C  24)      0.4062         0.019144   
    409. D(C  31,C  30,C  29,C  28)      1.4530         0.019144   
    410. D(C  31,C  30,C  29,C  24)   -178.7601         0.019144   
    411. D(C  32,C  31,C  30,C  35)     -0.1882         0.027537   
    412. D(C  32,C  31,C  30,C  29)    178.8879         0.027537   
    413. D(H  79,C  31,C  30,C  29)     -0.8820         0.027537   
    414. D(H  79,C  31,C  30,C  35)   -179.9581         0.027537   
    415. D(H  80,C  32,C  31,H  79)     -0.4542         0.029214   
    416. D(H  80,C  32,C  31,C  30)    179.7776         0.029214   
    417. D(C  33,C  32,C  31,H  79)    178.9638         0.029214   
    418. D(C  33,C  32,C  31,C  30)     -0.8044         0.029214   
    419. D(H  81,C  33,C  32,H  80)      0.4006         0.026491   
    420. D(H  81,C  33,C  32,C  31)   -179.0209         0.026491   
    421. D(C  34,C  33,C  32,H  80)   -179.9826         0.026491   
    422. D(C  34,C  33,C  32,C  31)      0.5959         0.026491   
    423. D(H  82,C  34,C  33,H  81)      1.1313         0.028845   
    424. D(H  82,C  34,C  33,C  32)   -178.4859         0.028845   
    425. D(C  35,C  34,C  33,H  81)   -179.7560         0.028845   
    426. D(C  35,C  34,C  33,C  32)      0.6269         0.028845   
    427. D(C  30,C  35,C  34,H  82)    177.4855         0.027652   
    428. D(N  23,C  35,C  34,H  82)      0.5298         0.027652   
    429. D(N  23,C  35,C  34,C  33)   -178.5770         0.027652   
    430. D(C  34,C  35,C  30,C  31)      1.4317         0.022574   
    431. D(C  34,C  35,C  30,C  29)   -177.8661         0.022574   
    432. D(N  23,C  35,C  30,C  31)    178.9507         0.022574   
    433. D(N  23,C  35,C  30,C  29)     -0.3471         0.022574   
    434. D(C  34,C  35,N  23,C  24)    177.3816         0.026604   
    435. D(C  34,C  35,N  23,C  22)      4.0290         0.026604   
    436. D(C  30,C  35,C  34,C  33)     -1.6213         0.027652   
    437. D(C  30,C  35,N  23,C  24)      0.1484         0.026604   
    438. D(C  30,C  35,N  23,C  22)   -173.2042         0.026604   
    439. D(H  83,C  36,C  22,N  23)     -1.8027         0.026122   
    440. D(H  83,C  36,C  22,C  21)    178.3568         0.026122   
    441. D(C  37,C  36,C  22,N  23)    178.9263         0.026122   
    442. D(C  37,C  36,C  22,C  21)     -0.9142         0.026122   
    443. D(H  84,C  37,C  36,H  83)      2.0128         0.029946   
    444. D(H  84,C  37,C  36,C  22)   -178.7228         0.029946   
    445. D(C  19,C  37,C  36,H  83)   -178.9905         0.029946   
    446. D(C  19,C  37,C  36,C  22)      0.2739         0.029946   
    447. D(H  84,C  37,C  19,C  20)    179.2336         0.025483   
    448. D(H  84,C  37,C  19,C  18)      0.1405         0.025483   
    449. D(C  36,C  37,C  19,C  20)      0.2423         0.025483   
    450. D(C  36,C  37,C  19,C  18)   -178.8508         0.025483   
    451. D(C  12,N  38,C  16,C  17)    179.8705         0.036755   
    452. D(C  12,N  38,C  16,C  15)     -0.5118         0.036755   
    453. D(C  16,N  38,C  12,C  13)     -1.2980         0.038530   
    454. D(C  16,N  38,C  12,C  11)    178.8728         0.038530   
    455. D(C   7,N  39,C  11,C  12)    179.9516         0.037757   
    456. D(C   7,N  39,C  11,C  10)     -0.9689         0.037757   
    457. D(C  11,N  39,C   7,C   8)     -0.0114         0.038625   
    458. D(C  11,N  39,C   7,C   6)    179.4368         0.038625   
    459. D(C   2,N  40,C   6,C   7)   -179.8226         0.039078   
    460. D(C   2,N  40,C   6,C   5)      0.2235         0.039078   
    461. D(C   6,N  40,C   2,C   3)     -0.2089         0.036157   
    462. D(C   6,N  40,C   2,C   1)    179.6859         0.036157   
    463. D(C  59,C  41,C   0,H  60)    176.2539         0.017506   
    464. D(C  59,C  41,C   0,C   1)     -3.3723         0.017506   
    465. D(C  42,C  41,C   0,H  60)     -3.0086         0.017506   
    466. D(C  42,C  41,C   0,C   1)    177.3652         0.017506   
    467. D(H  85,C  42,C  41,C  59)    179.5913         0.025239   
    468. D(H  85,C  42,C  41,C   0)     -1.1079         0.025239   
    469. D(C  43,C  42,C  41,C  59)     -1.5639         0.025239   
    470. D(C  43,C  42,C  41,C   0)    177.7369         0.025239   
    471. D(H  86,C  43,C  42,H  85)      1.2172         0.029485   
    472. D(H  86,C  43,C  42,C  41)   -177.6234         0.029485   
    473. D(C  44,C  43,C  42,H  85)    179.3417         0.029485   
    474. D(C  44,C  43,C  42,C  41)      0.5011         0.029485   
    475. D(C  58,C  44,C  43,H  86)    179.3489         0.026411   
    476. D(C  58,C  44,C  43,C  42)      1.2160         0.026411   
    477. D(N  45,C  44,C  43,H  86)     -0.6335         0.026411   
    478. D(N  45,C  44,C  43,C  42)   -178.7665         0.026411   
    479. D(C  57,N  45,C  44,C  58)    130.7428         0.023601   
    480. D(C  57,N  45,C  44,C  43)    -49.2749         0.023601   
    481. D(C  46,N  45,C  44,C  58)    -42.8321         0.023601   
    482. D(C  46,N  45,C  44,C  43)    137.1501         0.023601   
    483. D(C  51,C  46,N  45,C  57)     -0.0414         0.026302   
    484. D(C  51,C  46,N  45,C  44)    174.5152         0.026302   
    485. D(C  47,C  46,N  45,C  57)    177.2073         0.026302   
    486. D(C  47,C  46,N  45,C  44)     -8.2361         0.026302   
    487. D(H  87,C  47,C  46,C  51)    177.1478         0.027531   
    488. D(H  87,C  47,C  46,N  45)      0.1697         0.027531   
    489. D(C  48,C  47,C  46,C  51)     -2.4275         0.027531   
    490. D(C  48,C  47,C  46,N  45)   -179.4056         0.027531   
    491. D(H  88,C  48,C  47,H  87)      0.6200         0.029015   
    492. D(H  88,C  48,C  47,C  46)   -179.8003         0.029015   
    493. D(C  49,C  48,C  47,H  87)   -178.6795         0.029015   
    494. D(C  49,C  48,C  47,C  46)      0.9002         0.029015   
    495. D(H  89,C  49,C  48,H  88)      0.8889         0.026555   
    496. D(H  89,C  49,C  48,C  47)   -179.8124         0.026555   
    497. D(C  50,C  49,C  48,H  88)   -178.3969         0.026555   
    498. D(C  50,C  49,C  48,C  47)      0.9018         0.026555   
    499. D(H  90,C  50,C  49,H  89)     -0.5700         0.029282   
    500. D(H  90,C  50,C  49,C  48)    178.7104         0.029282   
    501. D(C  51,C  50,C  49,H  89)    179.5761         0.029282   
    502. D(C  51,C  50,C  49,C  48)     -1.1435         0.029282   
    503. D(C  52,C  51,C  50,H  90)     -0.4580         0.027447   
    504. D(C  52,C  51,C  50,C  49)    179.3970         0.027447   
    505. D(C  46,C  51,C  50,H  90)    179.7614         0.027447   
    506. D(C  46,C  51,C  50,C  49)     -0.3836         0.027447   
    507. D(C  52,C  51,C  46,C  47)   -177.6215         0.022736   
    508. D(C  52,C  51,C  46,N  45)     -0.0822         0.022736   
    509. D(C  50,C  51,C  46,C  47)      2.2120         0.022736   
    510. D(C  50,C  51,C  46,N  45)    179.7513         0.022736   
    511. D(C  57,C  52,C  51,C  50)   -179.6316         0.019134   
    512. D(C  57,C  52,C  51,C  46)      0.1706         0.019134   
    513. D(C  53,C  52,C  51,C  50)      1.1634         0.019134   
    514. D(C  53,C  52,C  51,C  46)   -179.0344         0.019134   
    515. D(H  91,C  53,C  52,C  57)    179.9474         0.027541   
    516. D(H  91,C  53,C  52,C  51)     -0.9340         0.027541   
    517. D(C  54,C  53,C  52,C  57)     -0.3027         0.027541   
    518. D(C  54,C  53,C  52,C  51)    178.8159         0.027541   
    519. D(H  92,C  54,C  53,H  91)     -0.5326         0.029224   
    520. D(H  92,C  54,C  53,C  52)    179.7194         0.029224   
    521. D(C  55,C  54,C  53,H  91)    178.7855         0.029224   
    522. D(C  55,C  54,C  53,C  52)     -0.9625         0.029224   
    523. D(H  93,C  55,C  54,H  92)      0.4811         0.026526   
    524. D(H  93,C  55,C  54,C  53)   -178.8412         0.026526   
    525. D(C  56,C  55,C  54,H  92)   -179.8929         0.026526   
    526. D(C  56,C  55,C  54,C  53)      0.7847         0.026526   
    527. D(H  94,C  56,C  55,H  93)      1.2452         0.028833   
    528. D(H  94,C  56,C  55,C  54)   -178.3813         0.028833   
    529. D(C  57,C  56,C  55,H  93)   -179.6848         0.028833   
    530. D(C  57,C  56,C  55,C  54)      0.6888         0.028833   
    531. D(N  45,C  57,C  56,H  94)      0.3883         0.027642   
    532. D(N  45,C  57,C  56,C  55)   -178.6737         0.027642   
    533. D(C  56,C  57,C  52,C  53)      1.7994         0.022599   
    534. D(C  56,C  57,C  52,C  51)   -177.5299         0.022599   
    535. D(N  45,C  57,C  52,C  53)    179.1285         0.022599   
    536. D(N  45,C  57,C  52,C  51)     -0.2007         0.022599   
    537. D(C  56,C  57,N  45,C  46)    177.1674         0.026487   
    538. D(C  56,C  57,N  45,C  44)      2.6940         0.026487   
    539. D(C  52,C  57,N  45,C  46)      0.1522         0.026487   
    540. D(C  52,C  57,C  56,C  55)     -1.9558         0.027642   
    541. D(C  52,C  57,N  45,C  44)   -174.3212         0.026487   
    542. D(C  52,C  57,C  56,H  94)    177.1062         0.027642   
    543. D(H  95,C  58,C  44,N  45)     -2.7315         0.025954   
    544. D(H  95,C  58,C  44,C  43)    177.2858         0.025954   
    545. D(C  59,C  58,C  44,N  45)    178.1358         0.025954   
    546. D(C  59,C  58,C  44,C  43)     -1.8469         0.025954   
    547. D(H  96,C  59,C  58,H  95)      1.4128         0.030134   
    548. D(H  96,C  59,C  58,C  44)   -179.4619         0.030134   
    549. D(C  41,C  59,C  58,H  95)   -178.3562         0.030134   
    550. D(C  41,C  59,C  58,C  44)      0.7691         0.030134   
    551. D(H  96,C  59,C  41,C  42)   -178.8392         0.025234   
    552. D(H  96,C  59,C  41,C   0)      1.8861         0.025234   
    553. D(C  58,C  59,C  41,C  42)      0.9269         0.025234   
    554. D(C  58,C  59,C  41,C   0)   -178.3478         0.025234   
    -----------------------------------------------------------------

Number of atoms                         .... 97
Number of degrees of freedom            .... 554

         *************************************************************
         *                GEOMETRY OPTIMIZATION CYCLE   1            *
         *************************************************************
---------------------------------
CARTESIAN COORDINATES (ANGSTROEM)
---------------------------------
  C      2.334526    2.230608   -0.547599
  C      2.932724    3.331017   -0.065806
  C      4.368576    3.435139    0.105876
  C      4.945377    4.622677    0.575156
  C      6.317722    4.683909    0.724855
  C      7.079642    3.573646    0.400589
  C      6.421359    2.431041   -0.060574
  C      7.176343    1.213776   -0.421227
  C      8.381124    1.299285   -1.122336
  C      9.027751    0.123644   -1.459967
  C      8.471566   -1.084832   -1.078268
  C      7.272253   -1.070956   -0.361899
  C      6.617920   -2.317282    0.080627
  C      7.349248   -3.480256    0.338606
  C      6.661038   -4.620362    0.719577
  C      5.285393   -4.568101    0.837280
  C      4.635636   -3.350817    0.594003
  C      3.195552   -3.240326    0.736036
  C      2.551201   -2.065237    0.748712
  C      1.115260   -1.903052    0.872636
  C      0.583212   -0.704270    1.354482
  C     -0.779775   -0.518904    1.462023
  C     -1.657030   -1.530056    1.077713
  N     -3.043830   -1.359265    1.152926
  C     -3.947784   -1.729925    0.174281
  C     -3.720838   -2.172117   -1.121325
  C     -4.817356   -2.460793   -1.909590
  C     -6.116129   -2.303680   -1.432796
  C     -6.350078   -1.836633   -0.155703
  C     -5.262635   -1.541967    0.655221
  C     -5.139046   -1.039731    1.993769
  C     -6.063987   -0.691949    2.968003
  C     -5.601939   -0.251789    4.191723
  C     -4.236381   -0.172942    4.453314
  C     -3.296863   -0.518158    3.500780
  C     -3.754883   -0.936993    2.260248
  C     -1.137209   -2.734771    0.605629
  C      0.224153   -2.914393    0.503266
  N      5.303394   -2.264321    0.220520
  N      6.647265    0.057506   -0.056994
  N      5.108634    2.371609   -0.198259
  C      0.913307    2.038216   -0.739255
  C      0.451628    0.845786   -1.306485
  C     -0.895802    0.599651   -1.465662
  C     -1.833858    1.550043   -1.069076
  N     -3.206082    1.317430   -1.194840
  C     -4.157450    1.625796   -0.238849
  C     -3.994144    2.065982    1.067000
  C     -5.128126    2.291307    1.822276
  C     -6.401503    2.068517    1.305165
  C     -6.570743    1.595249    0.020141
  C     -5.444841    1.367139   -0.759004
  C     -5.254706    0.880700   -2.095653
  C     -6.131382    0.483254   -3.095163
  C     -5.612235    0.079820   -4.308559
  C     -4.238414    0.089484   -4.535387
  C     -3.346691    0.485010   -3.556752
  C     -3.860332    0.862424   -2.324689
  C     -1.385307    2.758471   -0.535001
  C     -0.039580    2.992344   -0.367107
  H      2.974089    1.399823   -0.815505
  H      2.368593    4.208953    0.217088
  H      4.323385    5.471968    0.815865
  H      6.790948    5.584415    1.091108
  H      8.151820    3.581012    0.522297
  H      8.780569    2.257251   -1.418223
  H      9.951866    0.147794   -2.020632
  H      8.945284   -2.014677   -1.351825
  H      8.425124   -3.490428    0.262011
  H      7.195299   -5.538247    0.922306
  H      4.718721   -5.440846    1.125580
  H      2.664557   -4.173899    0.866309
  H      3.145968   -1.163823    0.681531
  H      1.255018    0.090397    1.644282
  H     -1.171944    0.422828    1.814163
  H     -2.719866   -2.286372   -1.509296
  H     -4.663712   -2.806621   -2.920868
  H     -6.946664   -2.542896   -2.079801
  H     -7.355729   -1.696707    0.210673
  H     -7.121738   -0.769889    2.767946
  H     -6.304220    0.027550    4.963241
  H     -3.903047    0.160030    5.425556
  H     -2.241919   -0.475313    3.725346
  H     -1.813057   -3.531362    0.331690
  H      0.604200   -3.847301    0.115770
  H      1.168046    0.095844   -1.608404
  H     -1.229528   -0.343076   -1.870393
  H     -3.013784    2.223589    1.490351
  H     -5.023432    2.637196    2.839704
  H     -7.263180    2.259722    1.927042
  H     -7.555722    1.401815   -0.376956
  H     -7.196754    0.495535   -2.922331
  H     -6.275859   -0.237942   -5.099175
  H     -3.860177   -0.213567   -5.500930
  H     -2.286516    0.511552   -3.757028
  H     -2.105311    3.517203   -0.266512
  H      0.275281    3.933178    0.056593

----------------------------
CARTESIAN COORDINATES (A.U.)
----------------------------
  NO LB      ZA    FRAG     MASS         X           Y           Z
   0 C     6.0000    0    12.011    4.411614    4.215238   -1.034813
   1 C     6.0000    0    12.011    5.542045    6.294709   -0.124355
   2 C     6.0000    0    12.011    8.255412    6.491472    0.200077
   3 C     6.0000    0    12.011    9.345408    8.735593    1.086887
   4 C     6.0000    0    12.011   11.938765    8.851305    1.369778
   5 C     6.0000    0    12.011   13.378584    6.753212    0.757003
   6 C     6.0000    0    12.011   12.134610    4.594002   -0.114468
   7 C     6.0000    0    12.011   13.561324    2.293704   -0.796004
   8 C     6.0000    0    12.011   15.838028    2.455293   -2.120908
   9 C     6.0000    0    12.011   17.059978    0.233653   -2.758939
  10 C     6.0000    0    12.011   16.008940   -2.050035   -2.037631
  11 C     6.0000    0    12.011   13.742566   -2.023814   -0.683890
  12 C     6.0000    0    12.011   12.506056   -4.379028    0.152362
  13 C     6.0000    0    12.011   13.888066   -6.576731    0.639872
  14 C     6.0000    0    12.011   12.587538   -8.731219    1.359804
  15 C     6.0000    0    12.011    9.987946   -8.632460    1.582229
  16 C     6.0000    0    12.011    8.760082   -6.332127    1.122502
  17 C     6.0000    0    12.011    6.038719   -6.123328    1.390906
  18 C     6.0000    0    12.011    4.821071   -3.902731    1.414860
  19 C     6.0000    0    12.011    2.107536   -3.596247    1.649043
  20 C     6.0000    0    12.011    1.102112   -1.330877    2.559600
  21 C     6.0000    0    12.011   -1.473561   -0.980586    2.762823
  22 C     6.0000    0    12.011   -3.131332   -2.891388    2.036583
  23 N     7.0000    0    14.007   -5.752004   -2.568638    2.178713
  24 C     6.0000    0    12.011   -7.460230   -3.269085    0.329342
  25 C     6.0000    0    12.011   -7.031364   -4.104707   -2.118996
  26 C     6.0000    0    12.011   -9.103484   -4.650225   -3.608602
  27 C     6.0000    0    12.011  -11.557809   -4.353323   -2.707592
  28 C     6.0000    0    12.011  -11.999908   -3.470733   -0.294237
  29 C     6.0000    0    12.011   -9.944938   -2.913895    1.238188
  30 C     6.0000    0    12.011   -9.711390   -1.964806    3.767677
  31 C     6.0000    0    12.011  -11.459275   -1.307595    5.608713
  32 C     6.0000    0    12.011  -10.586131   -0.475813    7.921209
  33 C     6.0000    0    12.011   -8.005601   -0.326813    8.415544
  34 C     6.0000    0    12.011   -6.230167   -0.979177    6.615515
  35 C     6.0000    0    12.011   -7.095700   -1.770661    4.271249
  36 C     6.0000    0    12.011   -2.149014   -5.167968    1.144474
  37 C     6.0000    0    12.011    0.423587   -5.507404    0.951036
  38 N     7.0000    0    14.007   10.021962   -4.278947    0.416723
  39 N     7.0000    0    14.007   12.561511    0.108670   -0.107703
  40 N     7.0000    0    14.007    9.653919    4.481691   -0.374654
  41 C     6.0000    0    12.011    1.725899    3.851670   -1.396989
  42 C     6.0000    0    12.011    0.853452    1.598303   -2.468898
  43 C     6.0000    0    12.011   -1.692820    1.133177   -2.769700
  44 C     6.0000    0    12.011   -3.465489    2.929158   -2.020261
  45 N     7.0000    0    14.007   -6.058616    2.489582   -2.257921
  46 C     6.0000    0    12.011   -7.856443    3.072310   -0.451360
  47 C     6.0000    0    12.011   -7.547838    3.904139    2.016338
  48 C     6.0000    0    12.011   -9.690754    4.329943    3.443603
  49 C     6.0000    0    12.011  -12.097088    3.908931    2.466405
  50 C     6.0000    0    12.011  -12.416905    3.014584    0.038061
  51 C     6.0000    0    12.011  -10.289259    2.583519   -1.434309
  52 C     6.0000    0    12.011   -9.929955    1.664281   -3.960210
  53 C     6.0000    0    12.011  -11.586632    0.913218   -5.849011
  54 C     6.0000    0    12.011  -10.605586    0.150837   -8.141996
  55 C     6.0000    0    12.011   -8.009441    0.169101   -8.570639
  56 C     6.0000    0    12.011   -6.324330    0.916536   -6.721288
  57 C     6.0000    0    12.011   -7.294971    1.629745   -4.393026
  58 C     6.0000    0    12.011   -2.617850    5.212754   -1.011006
  59 C     6.0000    0    12.011   -0.074795    5.654711   -0.693732
  60 H     1.0000    0     1.008    5.620214    2.645281   -1.541082
  61 H     1.0000    0     1.008    4.475992    7.953768    0.410238
  62 H     1.0000    0     1.008    8.170014   10.340520    1.541761
  63 H     1.0000    0     1.008   12.833031   10.553014    2.061896
  64 H     1.0000    0     1.008   15.404708    6.767132    0.986998
  65 H     1.0000    0     1.008   16.592871    4.265586   -2.680054
  66 H     1.0000    0     1.008   18.806302    0.279291   -3.818442
  67 H     1.0000    0     1.008   16.904136   -3.807188   -2.554579
  68 H     1.0000    0     1.008   15.921176   -6.595952    0.495129
  69 H     1.0000    0     1.008   13.597145  -10.465770    1.742906
  70 H     1.0000    0     1.008    8.917089  -10.281708    2.127039
  71 H     1.0000    0     1.008    5.035282   -7.887526    1.637087
  72 H     1.0000    0     1.008    5.945017   -2.199307    1.287907
  73 H     1.0000    0     1.008    2.371640    0.170826    3.107242
  74 H     1.0000    0     1.008   -2.214654    0.799030    3.428271
  75 H     1.0000    0     1.008   -5.139802   -4.320617   -2.852156
  76 H     1.0000    0     1.008   -8.813138   -5.303745   -5.519641
  77 H     1.0000    0     1.008  -13.127293   -4.805377   -3.930254
  78 H     1.0000    0     1.008  -13.900314   -3.206312    0.398115
  79 H     1.0000    0     1.008  -13.458135   -1.454880    5.230660
  80 H     1.0000    0     1.008  -11.913249    0.052062    9.379167
  81 H     1.0000    0     1.008   -7.375689    0.302413   10.252814
  82 H     1.0000    0     1.008   -4.236614   -0.898211    7.039883
  83 H     1.0000    0     1.008   -3.426181   -6.673306    0.626804
  84 H     1.0000    0     1.008    1.141772   -7.270346    0.218774
  85 H     1.0000    0     1.008    2.207287    0.181118   -3.039443
  86 H     1.0000    0     1.008   -2.323472   -0.648320   -3.534530
  87 H     1.0000    0     1.008   -5.695226    4.201974    2.816356
  88 H     1.0000    0     1.008   -9.492911    4.983578    5.366263
  89 H     1.0000    0     1.008  -13.725420    4.270255    3.641581
  90 H     1.0000    0     1.008  -14.278246    2.649046   -0.712343
  91 H     1.0000    0     1.008  -13.599895    0.936426   -5.522405
  92 H     1.0000    0     1.008  -11.859654   -0.449645   -9.636044
  93 H     1.0000    0     1.008   -7.294677   -0.403582  -10.395252
  94 H     1.0000    0     1.008   -4.320888    0.966693   -7.099754
  95 H     1.0000    0     1.008   -3.978462    6.646551   -0.503634
  96 H     1.0000    0     1.008    0.520206    7.432629    0.106945



           ************************************************************
           *        Program running with 40 parallel MPI-processes    *
           *              working on a common directory               *
           ************************************************************
------------------------------------------------------------------------------
                   ___                                                        
                  /   \      - P O W E R E D   B Y -                         
                 /     \                                                     
                 |  |  |   _    _      __       _____    __    __             
                 |  |  |  | |  | |    /  \     |  _  \  |  |  /  |          
                  \  \/   | |  | |   /    \    | | | |  |  | /  /          
                 / \  \   | |__| |  /  /\  \   | |_| |  |  |/  /          
                |  |  |   |  __  | /  /__\  \  |    /   |      \           
                |  |  |   | |  | | |   __   |  |    \   |  |\   \          
                \     /   | |  | | |  |  |  |  | |\  \  |  | \   \       
                 \___/    |_|  |_| |__|  |__|  |_| \__\ |__|  \__/        
                                                                              
                      - O R C A' S   B I G   F R I E N D -                    
                                      &                                       
                       - I N T E G R A L  F E E D E R -                       
                                                                              
 v1 FN, 2020, v2 2021                                                         
------------------------------------------------------------------------------


Reading SHARK input file /dev/shm/slurm.malcolms.9850266/9850266/S1/S1_OPT.SHARKINP.tmp ... ok
----------------------
SHARK INTEGRAL PACKAGE
----------------------

Number of atoms                             ...     97
Number of basis functions                   ...   1025
Number of shells                            ...    471
Maximum angular momentum                    ...      2
Integral batch strategy                     ... SHARK/LIBINT Hybrid
RI-J (if used) integral strategy            ... SPLIT-RIJ (Revised 2003 algorithm where possible)
Printlevel                                  ...      1
Contraction scheme used                     ... SEGMENTED contraction
Coulomb Range Separation                    ... NOT USED
Exchange Range Separation                   ... NOT USED
Finite Nucleus Model                        ... NOT USED
Auxiliary Coulomb fitting basis             ... AVAILABLE
   # of basis functions in Aux-J            ...   3347
   # of shells in Aux-J                     ...   1085
   Maximum angular momentum in Aux-J        ...      4
Auxiliary J/K fitting basis                 ... NOT available
Auxiliary Correlation fitting basis         ... NOT available
Auxiliary 'external' fitting basis          ... NOT available
Integral threshold                          ...     2.500000e-11
Primitive cut-off                           ...     2.500000e-12
Primitive pair pre-selection threshold      ...     2.500000e-12

Calculating pre-screening integrals         ... done (  0.0 sec) Dimension = 471
Organizing shell pair data                  ... done (  0.4 sec)
Shell pair information
Total number of shell pairs                 ...    111156
Shell pairs after pre-screening             ...     53586
Total number of primitive shell pairs       ...    410856
Primitive shell pairs kept                  ...    115416
          la=0 lb=0:  16175 shell pairs
          la=1 lb=0:  20131 shell pairs
          la=1 lb=1:   6416 shell pairs
          la=2 lb=0:   6291 shell pairs
          la=2 lb=1:   4002 shell pairs
          la=2 lb=2:    571 shell pairs

Calculating one electron integrals          ... done (  0.1 sec)
Calculating RI/J V-Matrix + Cholesky decomp.... done (  0.6 sec)
Calculating Nuclear repulsion               ... done (  0.0 sec) ENN=   7954.284171613817 Eh

SHARK setup successfully completed in   1.7 seconds

Maximum memory used throughout the entire GTOINT-calculation: 83.9 MB


           ************************************************************
           *        Program running with 40 parallel MPI-processes    *
           *              working on a common directory               *
           ************************************************************

Diagonalization of the overlap matrix:
Smallest eigenvalue                        ... 1.644e-04
Time for diagonalization                   ...    0.219 sec
Threshold for overlap eigenvalues          ... 1.000e-08
Number of eigenvalues below threshold      ... 0
Time for construction of square roots      ...    0.102 sec
Total time needed                          ...    0.330 sec

Time for model grid setup =    0.631 sec

Loading Hartree-Fock densities                     ... done
Calculating cut-offs                               ... done
Initializing the effective Hamiltonian             ... done
Setting up the integral package (SHARK)            ... done
Starting the Coulomb interaction                   ... done (   0.4 sec)
Reading the grid                                   ... done
Mapping shells                                     ... done
Starting the XC term evaluation                    ... done (   0.1 sec)
  promolecular density results
     # of electrons  =    401.968204116
     EX              =   -325.326003460
     EC              =    -13.599924586
     EX+EC           =   -338.925928046
Transforming the Hamiltonian                       ... done (   0.1 sec)
Diagonalizing the Hamiltonian                      ... done (   0.2 sec)
Back transforming the eigenvectors                 ... done (   0.0 sec)
Now organizing SCF variables                       ... done
-------------------
DFT GRID GENERATION
-------------------

General Integration Accuracy     IntAcc      ... 4.959
Radial Grid Type                 RadialGrid  ... OptM3 with GC (2021)
Angular Grid (max. ang.)         AngularGrid ... 6 (Lebedev-590)
Angular grid pruning method      GridPruning ... 4 (adaptive)
Weight generation scheme         WeightScheme... Becke
Basis function cutoff            BFCut       ... 1.0000e-11
Integration weight cutoff        WCut        ... 1.0000e-14
Angular grids for H and He will be reduced by one unit
Partially contracted basis set               ... off
Rotationally invariant grid construction     ... off

Total number of grid points                  ...  1147310
Total number of batches                      ...    17976
Average number of points per batch           ...       63
Average number of grid points per atom       ...    11828
Time for grid setup =   12.667 sec

--------------------
COSX GRID GENERATION
--------------------

GRIDX 1
-------
General Integration Accuracy     IntAcc      ... 4.020
Radial Grid Type                 RadialGrid  ... OptM3 with GC (2021)
Angular Grid (max. ang.)         AngularGrid ... 2 (Lebedev-110)
Angular grid pruning method      GridPruning ... 4 (adaptive)
Weight generation scheme         WeightScheme... Becke
Basis function cutoff            BFCut       ... 1.0000e-11
Integration weight cutoff        WCut        ... 1.0000e-14
Angular grids for H and He will be reduced by one unit
Partially contracted basis set               ... on
Rotationally invariant grid construction     ... off

Total number of grid points                  ...   128835
Total number of batches                      ...     2059
Average number of points per batch           ...       62
Average number of grid points per atom       ...     1328
UseSFitting                                  ... on

GRIDX 2
-------
General Integration Accuracy     IntAcc      ... 4.338
Radial Grid Type                 RadialGrid  ... OptM3 with GC (2021)
Angular Grid (max. ang.)         AngularGrid ... 3 (Lebedev-194)
Angular grid pruning method      GridPruning ... 4 (adaptive)
Weight generation scheme         WeightScheme... Becke
Basis function cutoff            BFCut       ... 1.0000e-11
Integration weight cutoff        WCut        ... 1.0000e-14
Angular grids for H and He will be reduced by one unit
Partially contracted basis set               ... on
Rotationally invariant grid construction     ... off

Total number of grid points                  ...   280574
Total number of batches                      ...     4429
Average number of points per batch           ...       63
Average number of grid points per atom       ...     2893
UseSFitting                                  ... on

GRIDX 3
-------
General Integration Accuracy     IntAcc      ... 4.871
Radial Grid Type                 RadialGrid  ... OptM3 with GC (2021)
Angular Grid (max. ang.)         AngularGrid ... 4 (Lebedev-302)
Angular grid pruning method      GridPruning ... 4 (adaptive)
Weight generation scheme         WeightScheme... Becke
Basis function cutoff            BFCut       ... 1.0000e-11
Integration weight cutoff        WCut        ... 1.0000e-14
Angular grids for H and He will be reduced by one unit
Partially contracted basis set               ... on
Rotationally invariant grid construction     ... off

Total number of grid points                  ...   515500
Total number of batches                      ...     8106
Average number of points per batch           ...       63
Average number of grid points per atom       ...     5314
UseSFitting                                  ... on

Time for X-Grid setup             =    6.610 sec

--------------
SCF ITERATIONS
--------------
ITER       Energy         Delta-E        Max-DP      RMS-DP      [F,P]     Damp
               ***  Starting incremental Fock matrix formation  ***
  0  -2386.4896748051   0.000000000000 0.08448731  0.00111164  0.1621692 0.7000
  1  -2386.9075776736  -0.417902868579 0.05594039  0.00079492  0.0795110 0.7000
                               ***Turning on DIIS***
  2  -2387.1017840103  -0.194206336682 0.11271861  0.00150084  0.0338145 0.0000
  3  -2387.3966905344  -0.294906524026 0.02822333  0.00047816  0.0355366 0.0000
  4  -2387.4559161215  -0.059225587172 0.00999524  0.00013540  0.0108840 0.0000
  5  -2387.4591518835  -0.003235761966 0.00366613  0.00004859  0.0040302 0.0000
                      *** Initiating the SOSCF procedure ***
                           *** Shutting down DIIS ***
                      *** Re-Reading the Fockian *** 
                      *** Removing any level shift *** 
ITER      Energy       Delta-E        Grad      Rot      Max-DP    RMS-DP
  6  -2387.45947368  -0.0003217985  0.000208  0.000208  0.001322  0.000024
               *** Restarting incremental Fock matrix formation ***
  7  -2387.45947039   0.0000032883  0.000137  0.000471  0.001122  0.000014
  8  -2387.45946294   0.0000074546  0.000262  0.000365  0.000612  0.000008
  9  -2387.45947526  -0.0000123254  0.000062  0.000204  0.000224  0.000003
 10  -2387.45947459   0.0000006741  0.000103  0.000128  0.000139  0.000002
 11  -2387.45947550  -0.0000009052  0.000018  0.000062  0.000073  0.000001
 12  -2387.45947550  -0.0000000043  0.000032  0.000047  0.000047  0.000001
                  ***Gradient check signals convergence***
              ***Rediagonalizing the Fockian in SOSCF/NRSCF***

               *****************************************************
               *                     SUCCESS                       *
               *           SCF CONVERGED AFTER  13 CYCLES          *
               *****************************************************

Old exchange energy                            =    -82.836761231 Eh
New exchange energy                            =    -82.836749892 Eh
Exchange energy change after final integration =      0.000011339 Eh
Total energy after final integration           =  -2387.459464213 Eh
Final COS-X integration done in                =    27.000 sec
Total Energy       :        -2387.45946421 Eh          -64966.07483 eV
  Last Energy change         ...   -5.2116e-08  Tolerance :   1.0000e-08
  Last MAX-Density change    ...    6.6613e-15  Tolerance :   1.0000e-07
             **** THE GBW FILE WAS UPDATED (/dev/shm/slurm.malcolms.9850266/9850266/S1/S1_OPT.gbw) ****
             **** DENSITY /dev/shm/slurm.malcolms.9850266/9850266/S1/S1_OPT.scfp WAS UPDATED ****
             **** ENERGY FILE WAS UPDATED (/dev/shm/slurm.malcolms.9850266/9850266/S1/S1_OPT.en.tmp) ****
             **** THE GBW FILE WAS UPDATED (/dev/shm/slurm.malcolms.9850266/9850266/S1/S1_OPT.gbw) ****
             **** DENSITY /dev/shm/slurm.malcolms.9850266/9850266/S1/S1_OPT.scfp WAS UPDATED ****
----------------
ORBITAL ENERGIES
----------------

  NO   OCC          E(Eh)            E(eV) 
   0   2.0000     -14.442546      -393.0017 
   1   2.0000     -14.441380      -392.9699 
   2   2.0000     -14.381982      -391.3536 
   3   2.0000     -14.380748      -391.3201 
   4   2.0000     -14.378864      -391.2688 
   5   2.0000     -10.284312      -279.8504 
   6   2.0000     -10.282713      -279.8068 
   7   2.0000     -10.276154      -279.6284 
   8   2.0000     -10.275632      -279.6142 
   9   2.0000     -10.275270      -279.6043 
  10   2.0000     -10.275129      -279.6005 
  11   2.0000     -10.275097      -279.5996 
  12   2.0000     -10.274191      -279.5750 
  13   2.0000     -10.266609      -279.3686 
  14   2.0000     -10.266034      -279.3530 
  15   2.0000     -10.265486      -279.3381 
  16   2.0000     -10.264932      -279.3230 
  17   2.0000     -10.258493      -279.1478 
  18   2.0000     -10.255913      -279.0776 
  19   2.0000     -10.255572      -279.0683 
  20   2.0000     -10.249541      -278.9042 
  21   2.0000     -10.249098      -278.8921 
  22   2.0000     -10.246007      -278.8080 
  23   2.0000     -10.245958      -278.8067 
  24   2.0000     -10.245566      -278.7960 
  25   2.0000     -10.245000      -278.7806 
  26   2.0000     -10.244947      -278.7792 
  27   2.0000     -10.244630      -278.7706 
  28   2.0000     -10.243247      -278.7329 
  29   2.0000     -10.242347      -278.7084 
  30   2.0000     -10.241634      -278.6890 
  31   2.0000     -10.241273      -278.6792 
  32   2.0000     -10.241073      -278.6738 
  33   2.0000     -10.240721      -278.6642 
  34   2.0000     -10.240587      -278.6605 
  35   2.0000     -10.239698      -278.6364 
  36   2.0000     -10.237337      -278.5721 
  37   2.0000     -10.236080      -278.5379 
  38   2.0000     -10.234134      -278.4849 
  39   2.0000     -10.232541      -278.4416 
  40   2.0000     -10.229454      -278.3576 
  41   2.0000     -10.229382      -278.3556 
  42   2.0000     -10.229054      -278.3467 
  43   2.0000     -10.228891      -278.3423 
  44   2.0000     -10.228837      -278.3408 
  45   2.0000     -10.228773      -278.3391 
  46   2.0000     -10.228596      -278.3342 
  47   2.0000     -10.228233      -278.3244 
  48   2.0000     -10.228142      -278.3219 
  49   2.0000     -10.227541      -278.3055 
  50   2.0000     -10.227408      -278.3019 
  51   2.0000     -10.227248      -278.2976 
  52   2.0000     -10.226910      -278.2884 
  53   2.0000     -10.226652      -278.2813 
  54   2.0000     -10.225115      -278.2395 
  55   2.0000     -10.224779      -278.2304 
  56   2.0000     -10.222235      -278.1612 
  57   2.0000     -10.221643      -278.1450 
  58   2.0000     -10.221127      -278.1310 
  59   2.0000     -10.220307      -278.1087 
  60   2.0000      -1.022887       -27.8342 
  61   2.0000      -1.020163       -27.7600 
  62   2.0000      -0.989740       -26.9322 
  63   2.0000      -0.975181       -26.5360 
  64   2.0000      -0.959446       -26.1078 
  65   2.0000      -0.900056       -24.4918 
  66   2.0000      -0.895761       -24.3749 
  67   2.0000      -0.869674       -23.6650 
  68   2.0000      -0.867946       -23.6180 
  69   2.0000      -0.864762       -23.5314 
  70   2.0000      -0.864073       -23.5126 
  71   2.0000      -0.841813       -22.9069 
  72   2.0000      -0.833206       -22.6727 
  73   2.0000      -0.831949       -22.6385 
  74   2.0000      -0.827561       -22.5191 
  75   2.0000      -0.821571       -22.3561 
  76   2.0000      -0.816106       -22.2074 
  77   2.0000      -0.807859       -21.9830 
  78   2.0000      -0.794241       -21.6124 
  79   2.0000      -0.784816       -21.3559 
  80   2.0000      -0.778912       -21.1953 
  81   2.0000      -0.776898       -21.1405 
  82   2.0000      -0.770945       -20.9785 
  83   2.0000      -0.764181       -20.7944 
  84   2.0000      -0.763393       -20.7730 
  85   2.0000      -0.757661       -20.6170 
  86   2.0000      -0.748268       -20.3614 
  87   2.0000      -0.730975       -19.8909 
  88   2.0000      -0.728478       -19.8229 
  89   2.0000      -0.727912       -19.8075 
  90   2.0000      -0.722143       -19.6505 
  91   2.0000      -0.686140       -18.6708 
  92   2.0000      -0.681403       -18.5419 
  93   2.0000      -0.676071       -18.3968 
  94   2.0000      -0.671972       -18.2853 
  95   2.0000      -0.651099       -17.7173 
  96   2.0000      -0.649861       -17.6836 
  97   2.0000      -0.645254       -17.5582 
  98   2.0000      -0.642517       -17.4838 
  99   2.0000      -0.631803       -17.1922 
 100   2.0000      -0.629834       -17.1387 
 101   2.0000      -0.624520       -16.9941 
 102   2.0000      -0.616906       -16.7869 
 103   2.0000      -0.615445       -16.7471 
 104   2.0000      -0.613473       -16.6935 
 105   2.0000      -0.596705       -16.2372 
 106   2.0000      -0.594263       -16.1707 
 107   2.0000      -0.586383       -15.9563 
 108   2.0000      -0.585757       -15.9393 
 109   2.0000      -0.580908       -15.8073 
 110   2.0000      -0.575989       -15.6735 
 111   2.0000      -0.556804       -15.1514 
 112   2.0000      -0.555774       -15.1234 
 113   2.0000      -0.554960       -15.1012 
 114   2.0000      -0.538398       -14.6505 
 115   2.0000      -0.532256       -14.4834 
 116   2.0000      -0.530724       -14.4417 
 117   2.0000      -0.526808       -14.3352 
 118   2.0000      -0.525512       -14.2999 
 119   2.0000      -0.518409       -14.1066 
[...]
   354. D(C  18,C  17,C  16,C  15)    169.01 -0.004567   -0.12    168.88   
   355. D(H  72,C  18,C  17,H  71)    176.20 -0.000781   -0.37    175.83   
   356. D(H  72,C  18,C  17,C  16)     -1.93  0.002988   -0.41     -2.34   
   357. D(C  19,C  18,C  17,H  71)     -3.11  0.002420   -1.07     -4.18   
   358. D(C  19,C  18,C  17,C  16)    178.76  0.006189   -1.11    177.65   
   359. D(C  37,C  19,C  18,H  72)    157.90  0.002079   -1.67    156.23   
   360. D(C  20,C  19,C  18,H  72)    -20.60 -0.000060   -0.74    -21.34   
   361. D(C  20,C  19,C  18,C  17)    158.72 -0.003250   -0.04    158.67   
   362. D(C  37,C  19,C  18,C  17)    -22.79 -0.001111   -0.97    -23.76   
   363. D(H  73,C  20,C  19,C  37)   -177.55 -0.000599    0.63   -176.92   
   364. D(H  73,C  20,C  19,C  18)      1.01  0.001453   -0.26      0.75   
   365. D(C  21,C  20,C  19,C  37)      0.74  0.001401   -0.90     -0.16   
   366. D(C  21,C  20,C  19,C  18)    179.29  0.003452   -1.79    177.50   
   367. D(H  74,C  21,C  20,H  73)      1.19  0.000251    0.03      1.22   
   368. D(H  74,C  21,C  20,C  19)   -177.09 -0.001750    1.57   -175.52   
   369. D(C  22,C  21,C  20,H  73)    177.05  0.001605   -1.53    175.52   
   370. D(C  22,C  21,C  20,C  19)     -1.23 -0.000396    0.01     -1.22   
   371. D(C  36,C  22,C  21,H  74)    176.86  0.000406   -0.74    176.11   
   372. D(C  36,C  22,C  21,C  20)      0.99 -0.000971    0.81      1.80   
   373. D(N  23,C  22,C  21,H  74)     -2.86 -0.000870    0.45     -2.42   
   374. D(N  23,C  22,C  21,C  20)   -178.72 -0.002247    2.00   -176.72   
   375. D(C  35,N  23,C  22,C  36)    127.43 -0.002362    1.30    128.73   
   376. D(C  35,N  23,C  22,C  21)    -52.85 -0.001089    0.10    -52.75   
   377. D(C  24,N  23,C  22,C  36)    -46.99 -0.001455    0.94    -46.05   
   378. D(C  24,N  23,C  22,C  21)    132.73 -0.000182   -0.26    132.47   
   379. D(C  29,C  24,N  23,C  35)     -0.74 -0.000570    0.17     -0.57   
   380. D(C  29,C  24,N  23,C  22)    174.46 -0.001396    0.50    174.96   
   381. D(C  25,C  24,N  23,C  35)    176.15 -0.000868    0.79    176.95   
   382. D(C  25,C  24,N  23,C  22)     -8.65 -0.001694    1.12     -7.53   
   383. D(H  75,C  25,C  24,C  29)    176.93 -0.001302    1.11    178.04   
   384. D(H  75,C  25,C  24,N  23)      0.37 -0.000950    0.43      0.80   
   385. D(C  26,C  25,C  24,C  29)     -1.95 -0.000550    0.26     -1.69   
   386. D(C  26,C  25,C  24,N  23)   -178.50 -0.000199   -0.42   -178.92   
   387. D(H  76,C  26,C  25,H  75)     -0.01  0.000560   -0.45     -0.46   
   388. D(H  76,C  26,C  25,C  24)    178.86 -0.000214    0.39    179.25   
   389. D(C  27,C  26,C  25,H  75)   -178.16  0.001002   -1.09   -179.25   
   390. D(C  27,C  26,C  25,C  24)      0.71  0.000229   -0.25      0.46   
   391. D(H  77,C  27,C  26,H  76)      0.23 -0.000174    0.43      0.67   
   392. D(H  77,C  27,C  26,C  25)    178.38 -0.000618    1.07    179.45   
   393. D(C  28,C  27,C  26,H  76)   -177.91  0.000465   -0.38   -178.29   
   394. D(C  28,C  27,C  26,C  25)      0.23  0.000022    0.26      0.49   
   395. D(H  78,C  28,C  27,H  77)      0.19  0.000212   -0.31     -0.12   
   396. D(H  78,C  28,C  27,C  26)    178.33 -0.000434    0.51    178.84   
   397. D(C  29,C  28,C  27,H  77)   -178.10  0.000670   -1.09   -179.19   
   398. D(C  29,C  28,C  27,C  26)      0.04  0.000024   -0.26     -0.23   
   399. D(C  30,C  29,C  28,H  78)     -0.96 -0.000269    0.24     -0.72   
   400. D(C  30,C  29,C  28,C  27)    177.34 -0.000712    1.01    178.34   
   401. D(C  24,C  29,C  28,H  78)   -179.54  0.000125   -0.49   -180.03   
   402. D(C  24,C  29,C  28,C  27)     -1.24 -0.000318    0.28     -0.96   
   403. D(C  30,C  29,C  24,C  25)   -176.68  0.000893   -0.83   -177.51   
   404. D(C  30,C  29,C  24,N  23)      0.51  0.000591   -0.28      0.22   
   405. D(C  28,C  29,C  24,C  25)      2.25  0.000600   -0.28      1.97   
   406. D(C  28,C  29,C  24,N  23)    179.43  0.000298    0.27    179.70   
   407. D(C  35,C  30,C  29,C  28)   -178.80 -0.000030   -0.38   -179.18   
   408. D(C  35,C  30,C  29,C  24)     -0.09 -0.000391    0.28      0.19   
   409. D(C  31,C  30,C  29,C  28)      1.43 -0.000255    0.19      1.62   
   410. D(C  31,C  30,C  29,C  24)   -179.86 -0.000616    0.84   -179.02   
   411. D(C  32,C  31,C  30,C  35)     -0.76 -0.000394    0.39     -0.37   
   412. D(C  32,C  31,C  30,C  29)    178.98 -0.000146   -0.24    178.75   
   413. D(H  79,C  31,C  30,C  29)     -1.12 -0.000435    0.22     -0.90   
   414. D(H  79,C  31,C  30,C  35)    179.13 -0.000683    0.85    179.98   
   415. D(H  80,C  32,C  31,H  79)      0.05  0.000318   -0.37     -0.32   
   416. D(H  80,C  32,C  31,C  30)    179.94  0.000029    0.10    180.04   
   417. D(C  33,C  32,C  31,H  79)    179.65  0.000352   -0.50    179.15   
   418. D(C  33,C  32,C  31,C  30)     -0.46  0.000063   -0.03     -0.49   
   419. D(H  81,C  33,C  32,H  80)      0.50  0.000076   -0.12      0.38   
   420. D(H  81,C  33,C  32,C  31)   -179.10  0.000039    0.01   -179.09   
   421. D(C  34,C  33,C  32,H  80)   -179.80  0.000216   -0.35   -180.15   
   422. D(C  34,C  33,C  32,C  31)      0.60  0.000179   -0.22      0.38   
   423. D(H  82,C  34,C  33,H  81)      0.96  0.000071   -0.05      0.91   
   424. D(H  82,C  34,C  33,C  32)   -178.74 -0.000067    0.18   -178.56   
   425. D(C  35,C  34,C  33,H  81)   -179.80  0.000058   -0.13   -179.93   
   426. D(C  35,C  34,C  33,C  32)      0.50 -0.000080    0.11      0.60   
   427. D(C  30,C  35,C  34,H  82)    177.49 -0.000278    0.18    177.67   
   428. D(N  23,C  35,C  34,H  82)      0.50  0.000039    0.36      0.86   
   429. D(N  23,C  35,C  34,C  33)   -178.74  0.000057    0.43   -178.31   
   430. D(C  34,C  35,C  30,C  31)      1.91  0.000493   -0.51      1.41   
   431. D(C  34,C  35,C  30,C  29)   -177.89  0.000304   -0.03   -177.93   
   432. D(N  23,C  35,C  30,C  31)    179.45  0.000244   -0.66    178.79   
   433. D(N  23,C  35,C  30,C  29)     -0.36  0.000056   -0.18     -0.54   
   434. D(C  34,C  35,N  23,C  24)    177.98  0.000024   -0.15    177.82   
   435. D(C  34,C  35,N  23,C  22)      2.77  0.000781   -0.45      2.32   
   436. D(C  30,C  35,C  34,C  33)     -1.75 -0.000260    0.25     -1.50   
   437. D(C  30,C  35,N  23,C  24)      0.68  0.000317    0.01      0.69   
   438. D(C  30,C  35,N  23,C  22)   -174.52  0.001074   -0.29   -174.81   
   439. D(H  83,C  36,C  22,N  23)     -2.12  0.000953   -0.85     -2.97   
   440. D(H  83,C  36,C  22,C  21)    178.16 -0.000309    0.32    178.48   
   441. D(C  37,C  36,C  22,N  23)    179.44  0.002560   -1.89    177.54   
   442. D(C  37,C  36,C  22,C  21)     -0.29  0.001299   -0.72     -1.01   
   443. D(H  84,C  37,C  36,H  83)      2.32 -0.000022   -0.12      2.20   
   444. D(H  84,C  37,C  36,C  22)   -179.24 -0.001635    0.93   -178.31   
   445. D(C  19,C  37,C  36,H  83)   -178.63  0.001345   -1.24   -179.87   
   446. D(C  19,C  37,C  36,C  22)     -0.20 -0.000268   -0.19     -0.39   
   447. D(H  84,C  37,C  19,C  20)    179.02  0.000315   -0.14    178.89   
   448. D(H  84,C  37,C  19,C  18)      0.49 -0.001781    0.77      1.27   
   449. D(C  36,C  37,C  19,C  20)     -0.02 -0.001061    0.99      0.97   
   450. D(C  36,C  37,C  19,C  18)   -178.54 -0.003157    1.90   -176.65   
   451. D(C  12,N  38,C  16,C  17)    179.28 -0.004899    0.47    179.75   
   452. D(C  12,N  38,C  16,C  15)     -0.46 -0.001894   -0.04     -0.50   
   453. D(C  16,N  38,C  12,C  13)     -0.79  0.000480   -0.06     -0.86   
   454. D(C  16,N  38,C  12,C  11)    179.39  0.002531   -0.25    179.14   
   455. D(C   7,N  39,C  11,C  12)   -179.82 -0.001784   -0.02   -179.84   
   456. D(C   7,N  39,C  11,C  10)     -0.60 -0.000988   -0.05     -0.65   
   457. D(C  11,N  39,C   7,C   8)     -0.25 -0.001282    0.06     -0.18   
   458. D(C  11,N  39,C   7,C   6)    179.38 -0.002589    0.17    179.55   
   459. D(C   2,N  40,C   6,C   7)    179.63  0.002408   -0.40    179.23   
   460. D(C   2,N  40,C   6,C   5)     -0.12  0.000627   -0.11     -0.23   
   461. D(C   6,N  40,C   2,C   3)     -0.41 -0.001739   -0.24     -0.65   
   462. D(C   6,N  40,C   2,C   1)    179.51 -0.004864   -0.35    179.15   
   463. D(C  59,C  41,C   0,H  60)    177.11  0.002746   -1.90    175.21   
   464. D(C  59,C  41,C   0,C   1)     -2.82 -0.001105   -1.18     -4.00   
   465. D(C  42,C  41,C   0,H  60)     -2.30  0.000075   -1.18     -3.48   
   466. D(C  42,C  41,C   0,C   1)    177.77 -0.003777   -0.46    177.31   
   467. D(H  85,C  42,C  41,C  59)    178.79  0.000100   -0.77    178.02   
   468. D(H  85,C  42,C  41,C   0)     -1.76  0.002572   -1.46     -3.21   
   469. D(C  43,C  42,C  41,C  59)     -3.03  0.002369   -2.01     -5.04   
   470. D(C  43,C  42,C  41,C   0)    176.42  0.004841   -2.70    173.72   
   471. D(H  86,C  43,C  42,H  85)      1.06  0.000498   -0.30      0.75   
   472. D(H  86,C  43,C  42,C  41)   -177.11 -0.001793    0.94   -176.17   
   473. D(C  44,C  43,C  42,H  85)    179.63  0.001619   -0.81    178.82   
   474. D(C  44,C  43,C  42,C  41)      1.46 -0.000672    0.44      1.90   
   475. D(C  58,C  44,C  43,H  86)   -179.82 -0.000638    1.00   -178.82   
   476. D(C  58,C  44,C  43,C  42)      1.61 -0.001777    1.50      3.11   
   477. D(N  45,C  44,C  43,H  86)      0.56 -0.002204    1.94      2.50   
   478. D(N  45,C  44,C  43,C  42)   -178.02 -0.003342    2.44   -175.57   
   479. D(C  57,N  45,C  44,C  58)    130.41 -0.003007    1.61    132.02   
   480. D(C  57,N  45,C  44,C  43)    -49.97 -0.001413    0.66    -49.31   
   481. D(C  46,N  45,C  44,C  58)    -45.59 -0.001710    0.88    -44.72   
   482. D(C  46,N  45,C  44,C  43)    134.03 -0.000115   -0.07    133.95   
   483. D(C  51,C  46,N  45,C  57)     -0.66  0.000042   -0.29     -0.95   
   484. D(C  51,C  46,N  45,C  44)    175.93 -0.001167    0.35    176.28   
   485. D(C  47,C  46,N  45,C  57)    177.79 -0.000633    0.98    178.78   
   486. D(C  47,C  46,N  45,C  44)     -5.61 -0.001843    1.62     -3.99   
   487. D(H  87,C  47,C  46,C  51)    177.89 -0.000620    0.99    178.87   
   488. D(H  87,C  47,C  46,N  45)     -0.41  0.000128   -0.41     -0.83   
   489. D(C  48,C  47,C  46,C  51)     -2.74  0.000162   -0.01     -2.75   
   490. D(C  48,C  47,C  46,N  45)    178.96  0.000910   -1.41    177.55   
   491. D(H  88,C  48,C  47,H  87)     -0.26  0.000295   -0.44     -0.69   
   492. D(H  88,C  48,C  47,C  46)   -179.63 -0.000491    0.56   -179.07   
   493. D(C  49,C  48,C  47,H  87)   -179.29  0.000659   -0.93   -180.22   
   494. D(C  49,C  48,C  47,C  46)      1.34 -0.000126    0.06      1.40   
   495. D(H  89,C  49,C  48,H  88)      0.53 -0.000326    0.38      0.92   
   496. D(H  89,C  49,C  48,C  47)    179.56 -0.000692    0.88    180.44   
   497. D(C  50,C  49,C  48,H  88)   -178.53  0.000228   -0.43   -178.96   
   498. D(C  50,C  49,C  48,C  47)      0.50 -0.000138    0.07      0.56   
   499. D(H  90,C  50,C  49,H  89)     -0.22  0.000190   -0.07     -0.29   
   500. D(H  90,C  50,C  49,C  48)    178.84 -0.000363    0.76    179.59   
   501. D(C  51,C  50,C  49,H  89)   -180.00  0.000916   -1.06   -181.06   
   502. D(C  51,C  50,C  49,C  48)     -0.94  0.000363   -0.23     -1.18   
   503. D(C  52,C  51,C  50,H  90)     -1.33 -0.000188    0.49     -0.84   
   504. D(C  52,C  51,C  50,C  49)    178.45 -0.000909    1.47    179.92   
   505. D(C  46,C  51,C  50,H  90)    179.77  0.000393   -0.70    179.06   
   506. D(C  46,C  51,C  50,C  49)     -0.45 -0.000329    0.28     -0.17   
   507. D(C  52,C  51,C  46,C  47)   -176.83  0.000526   -1.07   -177.90   
   508. D(C  52,C  51,C  46,N  45)      1.78 -0.000072    0.08      1.86   
   509. D(C  50,C  51,C  46,C  47)      2.35  0.000075   -0.16      2.18   
   510. D(C  50,C  51,C  46,N  45)   -179.05 -0.000524    0.98   -178.06   
   511. D(C  57,C  52,C  51,C  50)    178.81  0.000579   -0.91    177.90   
   512. D(C  57,C  52,C  51,C  46)     -2.17  0.000060    0.16     -2.01   
   513. D(C  53,C  52,C  51,C  50)     -1.01  0.000650   -0.83     -1.85   
   514. D(C  53,C  52,C  51,C  46)    178.00  0.000130    0.24    178.24   
   515. D(H  91,C  53,C  52,C  57)    178.49 -0.000530    1.01    179.50   
   516. D(H  91,C  53,C  52,C  51)     -1.71 -0.000608    0.93     -0.78   
   517. D(C  54,C  53,C  52,C  57)     -1.14 -0.000432    0.63     -0.51   
   518. D(C  54,C  53,C  52,C  51)    178.67 -0.000511    0.54    179.21   
   519. D(H  92,C  54,C  53,H  91)      0.44  0.000160   -0.31      0.13   
   520. D(H  92,C  54,C  53,C  52)   -179.94  0.000059    0.08   -179.86   
   521. D(C  55,C  54,C  53,H  91)    179.71  0.000272   -0.61    179.10   
   522. D(C  55,C  54,C  53,C  52)     -0.66  0.000171   -0.22     -0.89   
   523. D(H  93,C  55,C  54,H  92)      0.58  0.000021   -0.06      0.52   
   524. D(H  93,C  55,C  54,C  53)   -178.70 -0.000095    0.24   -178.46   
   525. D(C  56,C  55,C  54,H  92)   -179.62  0.000203   -0.50   -180.12   
   526. D(C  56,C  55,C  54,C  53)      1.10  0.000088   -0.20      0.90   
   527. D(H  94,C  56,C  55,H  93)      0.67  0.000128   -0.12      0.55   
   528. D(H  94,C  56,C  55,C  54)   -179.13 -0.000054    0.31   -178.82   
   529. D(C  57,C  56,C  55,H  93)   -179.88  0.000084   -0.24   -180.12   
   530. D(C  57,C  56,C  55,C  54)      0.32 -0.000097    0.20      0.52   
   531. D(N  45,C  57,C  56,H  94)     -1.60  0.000438   -0.17     -1.77   
   532. D(N  45,C  57,C  56,C  55)    178.95  0.000490   -0.06    178.89   
   533. D(C  56,C  57,C  52,C  53)      2.60  0.000425   -0.64      1.96   
   534. D(C  56,C  57,C  52,C  51)   -177.25  0.000485   -0.57   -177.82   
   535. D(N  45,C  57,C  52,C  53)   -178.30 -0.000108   -0.41   -178.71   
   536. D(N  45,C  57,C  52,C  51)      1.84 -0.000047   -0.34      1.50   
   537. D(C  56,C  57,N  45,C  46)    178.24 -0.000584    0.64    178.88   
   538. D(C  56,C  57,N  45,C  44)      1.67  0.000405    0.03      1.70   
   539. D(C  52,C  57,N  45,C  46)     -0.76  0.000006    0.39     -0.37   
   540. D(C  52,C  57,C  56,C  55)     -2.15 -0.000157    0.21     -1.93   
   541. D(C  52,C  57,N  45,C  44)   -177.33  0.000995   -0.22   -177.55   
   542. D(C  52,C  57,C  56,H  94)    177.30 -0.000208    0.10    177.40   
   543. D(H  95,C  58,C  44,N  45)     -3.79  0.001655   -1.34     -5.13   
   544. D(H  95,C  58,C  44,C  43)    176.58  0.000101   -0.41    176.16   
   545. D(C  59,C  58,C  44,N  45)    176.63  0.003859   -2.75    173.89   
   546. D(C  59,C  58,C  44,C  43)     -2.99  0.002306   -1.82     -4.82   
   547. D(H  96,C  59,C  58,H  95)      1.44 -0.000050   -0.10      1.33   
   548. D(H  96,C  59,C  58,C  44)   -178.99 -0.002267    1.32   -177.68   
   549. D(C  41,C  59,C  58,H  95)   -178.22  0.001722   -1.21   -179.43   
   550. D(C  41,C  59,C  58,C  44)      1.35 -0.000495    0.21      1.56   
   551. D(H  96,C  59,C  41,C  42)   -178.03 -0.000001    0.56   -177.47   
   552. D(H  96,C  59,C  41,C   0)      2.53 -0.002547    1.28      3.81   
   553. D(C  58,C  59,C  41,C  42)      1.62 -0.001789    1.69      3.31   
   554. D(C  58,C  59,C  41,C   0)   -177.81 -0.004335    2.40   -175.42   
    ----------------------------------------------------------------------------




    ----------------------------------------------------------------------------
                                  WARNING !!!
       The optimization did not converge but reached the maximum number of
       optimization cycles.
       Please check your results very carefully.
    ----------------------------------------------------------------------------



                            ***************************************
                            *     ORCA property calculations      *
                            ***************************************

                                    ---------------------
                                    Active property flags
                                    ---------------------
   (+) Dipole Moment


------------------------------------------------------------------------------
                       ORCA ELECTRIC PROPERTIES CALCULATION
------------------------------------------------------------------------------

Dipole Moment Calculation                       ... on
Quadrupole Moment Calculation                   ... off
Polarizability Calculation                      ... off
GBWName                                         ... /dev/shm/slurm.malcolms.9850266/9850266/S1/S1_OPT.gbw
Electron density                                ... /dev/shm/slurm.malcolms.9850266/9850266/S1/S1_OPT.scfp
The origin for moment calculation is the CENTER OF MASS  = ( 0.001671, -0.005533  0.000572)

-------------
DIPOLE MOMENT
-------------
                                X             Y             Z
Electronic contribution:      9.65611      -0.37787       0.28669
Nuclear contribution   :     -7.76880       0.13499       0.20995
                        -----------------------------------------
Total Dipole Moment    :      1.88732      -0.24288       0.49664
                        -----------------------------------------
Magnitude (a.u.)       :      1.96662
Magnitude (Debye)      :      4.99876



--------------------
Rotational spectrum 
--------------------
 
Rotational constants in cm-1:     0.002755     0.000789     0.000722 
Rotational constants in MHz :    82.580461    23.660320    21.633990 

 Dipole components along the rotational axes: 
x,y,z [a.u.] :     1.893851    -0.309183     0.430507 
x,y,z [Debye]:     4.813787    -0.785881     1.094262 

 

                        *** CIS RELAXED DENSITY ***

------------------------------------------------------------------------------
                       ORCA ELECTRIC PROPERTIES CALCULATION
------------------------------------------------------------------------------

Dipole Moment Calculation                       ... on
Quadrupole Moment Calculation                   ... off
Polarizability Calculation                      ... off
GBWName                                         ... /dev/shm/slurm.malcolms.9850266/9850266/S1/S1_OPT.gbw
Electron density                                ... /dev/shm/slurm.malcolms.9850266/9850266/S1/S1_OPT.cisp
The origin for moment calculation is the CENTER OF MASS  = ( 0.001671, -0.005533  0.000572)

-------------
DIPOLE MOMENT
-------------
                                X             Y             Z
Electronic contribution:      2.89934      -4.10657       1.37173
Nuclear contribution   :     -7.76880       0.13499       0.20995
                        -----------------------------------------
Total Dipole Moment    :     -4.86946      -3.97158       1.58168
                        -----------------------------------------
Magnitude (a.u.)       :      6.47972
Magnitude (Debye)      :     16.47014



--------------------
Rotational spectrum 
--------------------
 
Rotational constants in cm-1:     0.002755     0.000789     0.000722 
Rotational constants in MHz :    82.580461    23.660320    21.633990 

 Dipole components along the rotational axes: 
x,y,z [a.u.] :    -4.819412    -4.242583     0.872086 
x,y,z [Debye]:   -12.249972   -10.783790     2.216667 

 

Timings for individual modules:

Sum of individual times         ...     3366.913 sec (=  56.115 min)
GTO integral calculation        ...       20.924 sec (=   0.349 min)   0.6 %
SCF iterations                  ...     1585.382 sec (=  26.423 min)  47.1 %
CIS module                      ...      547.423 sec (=   9.124 min)  16.3 %
SCF Gradient evaluation         ...     1209.690 sec (=  20.161 min)  35.9 %
Geometry relaxation             ...        3.494 sec (=   0.058 min)   0.1 %
                             ****ORCA TERMINATED NORMALLY****
TOTAL RUN TIME: 0 days 0 hours 56 minutes 20 seconds 213 msec
