
                                 *****************
                                 * O   R   C   A *
                                 *****************

                                            #,                                       
                                            ###                                      
                                            ####                                     
                                            #####                                    
                                            ######                                   
                                           ########,                                 
                                     ,,################,,,,,                         
                               ,,#################################,,                 
                          ,,##########################################,,             
                       ,#########################################, ''#####,          
                    ,#############################################,,   '####,        
                  ,##################################################,,,,####,       
                ,###########''''           ''''###############################       
              ,#####''   ,,,,##########,,,,          '''####'''          '####       
            ,##' ,,,,###########################,,,                        '##       
           ' ,,###''''                  '''############,,,                           
         ,,##''                                '''############,,,,        ,,,,,,###''
      ,#''                                            '''#######################'''  
     '                                                          ''''####''''         
             ,#######,   #######,   ,#######,      ##                                
            ,#'     '#,  ##    ##  ,#'     '#,    #''#        ######   ,####,        
            ##       ##  ##   ,#'  ##            #'  '#       #        #'  '#        
            ##       ##  #######   ##           ,######,      #####,   #    #        
            '#,     ,#'  ##    ##  '#,     ,#' ,#      #,         ##   #,  ,#        
             '#######'   ##     ##  '#######'  #'      '#     #####' # '####'        



                  #######################################################
                  #                        -***-                        #
                  #          Department of theory and spectroscopy      #
                  #    Directorship and core code : Frank Neese         #
                  #        Max Planck Institute fuer Kohlenforschung    #
                  #                Kaiser Wilhelm Platz 1               #
                  #                 D-45470 Muelheim/Ruhr               #
                  #                      Germany                        #
                  #                                                     #
                  #                  All rights reserved                #
                  #                        -***-                        #
                  #######################################################


                         Program Version 5.0.3 -  RELEASE  -


 With contributions from (in alphabetic order):
   Daniel Aravena         : Magnetic Suceptibility
   Michael Atanasov       : Ab Initio Ligand Field Theory (pilot matlab implementation)
   Alexander A. Auer      : GIAO ZORA, VPT2 properties, NMR spectrum
   Ute Becker             : Parallelization
   Giovanni Bistoni       : ED, misc. LED, open-shell LED, HFLD
   Martin Brehm           : Molecular dynamics
   Dmytro Bykov           : SCF Hessian
   Vijay G. Chilkuri      : MRCI spin determinant printing, contributions to CSF-ICE
   Dipayan Datta          : RHF DLPNO-CCSD density
   Achintya Kumar Dutta   : EOM-CC, STEOM-CC
   Dmitry Ganyushin       : Spin-Orbit,Spin-Spin,Magnetic field MRCI
   Miquel Garcia          : C-PCM and meta-GGA Hessian, CC/C-PCM, Gaussian charge scheme
   Yang Guo               : DLPNO-NEVPT2, F12-NEVPT2, CIM, IAO-localization
   Andreas Hansen         : Spin unrestricted coupled pair/coupled cluster methods
   Benjamin Helmich-Paris : MC-RPA, TRAH-SCF, COSX integrals
   Lee Huntington         : MR-EOM, pCC
   Robert Izsak           : Overlap fitted RIJCOSX, COSX-SCS-MP3, EOM
   Marcus Kettner         : VPT2
   Christian Kollmar      : KDIIS, OOCD, Brueckner-CCSD(T), CCSD density, CASPT2, CASPT2-K
   Simone Kossmann        : Meta GGA functionals, TD-DFT gradient, OOMP2, MP2 Hessian
   Martin Krupicka        : Initial AUTO-CI
   Lucas Lang             : DCDCAS
   Marvin Lechner         : AUTO-CI (C++ implementation), FIC-MRCC
   Dagmar Lenk            : GEPOL surface, SMD
   Dimitrios Liakos       : Extrapolation schemes; Compound Job, initial MDCI parallelization
   Dimitrios Manganas     : Further ROCIS development; embedding schemes
   Dimitrios Pantazis     : SARC Basis sets
   Anastasios Papadopoulos: AUTO-CI, single reference methods and gradients
   Taras Petrenko         : DFT Hessian,TD-DFT gradient, ASA, ECA, R-Raman, ABS, FL, XAS/XES, NRVS
   Peter Pinski           : DLPNO-MP2, DLPNO-MP2 Gradient
   Christoph Reimann      : Effective Core Potentials
   Marius Retegan         : Local ZFS, SOC
   Christoph Riplinger    : Optimizer, TS searches, QM/MM, DLPNO-CCSD(T), (RO)-DLPNO pert. Triples
   Tobias Risthaus        : Range-separated hybrids, TD-DFT gradient, RPA, STAB
   Michael Roemelt        : Original ROCIS implementation
   Masaaki Saitow         : Open-shell DLPNO-CCSD energy and density
   Barbara Sandhoefer     : DKH picture change effects
   Avijit Sen             : IP-ROCIS
   Kantharuban Sivalingam : CASSCF convergence, NEVPT2, FIC-MRCI
   Bernardo de Souza      : ESD, SOC TD-DFT
   Georgi Stoychev        : AutoAux, RI-MP2 NMR, DLPNO-MP2 response
   Willem Van den Heuvel  : Paramagnetic NMR
   Boris Wezisla          : Elementary symmetry handling
   Frank Wennmohs         : Technical directorship


 We gratefully acknowledge several colleagues who have allowed us to
 interface, adapt or use parts of their codes:
   Stefan Grimme, W. Hujo, H. Kruse, P. Pracht,  : VdW corrections, initial TS optimization,
                  C. Bannwarth, S. Ehlert          DFT functionals, gCP, sTDA/sTD-DF
   Ed Valeev, F. Pavosevic, A. Kumar             : LibInt (2-el integral package), F12 methods
   Garnet Chan, S. Sharma, J. Yang, R. Olivares  : DMRG
   Ulf Ekstrom                                   : XCFun DFT Library
   Mihaly Kallay                                 : mrcc  (arbitrary order and MRCC methods)
   Jiri Pittner, Ondrej Demel                    : Mk-CCSD
   Frank Weinhold                                : gennbo (NPA and NBO analysis)
   Christopher J. Cramer and Donald G. Truhlar   : smd solvation model
   Lars Goerigk                                  : TD-DFT with DH, B97 family of functionals
   V. Asgeirsson, H. Jonsson                     : NEB implementation
   FAccTs GmbH                                   : IRC, NEB, NEB-TS, DLPNO-Multilevel, CI-OPT
                                                   MM, QMMM, 2- and 3-layer-ONIOM, Crystal-QMMM,
                                                   LR-CPCM, SF, NACMEs, symmetry and pop. for TD-DFT,
                                                   nearIR, NL-DFT gradient (VV10), updates on ESD,
                                                   ML-optimized integration grids
   S Lehtola, MJT Oliveira, MAL Marques          : LibXC Library
   Liviu Ungur et al                             : ANISO software


 Your calculation uses the libint2 library for the computation of 2-el integrals
 For citations please refer to: http://libint.valeyev.net

 Your ORCA version has been built with support for libXC version: 5.1.0
 For citations please refer to: https://tddft.org/programs/libxc/

 This ORCA versions uses:
   CBLAS   interface :  Fast vector & matrix operations
   LAPACKE interface :  Fast linear algebra routines
   SCALAPACK package :  Parallel linear algebra routines
   Shared memory     :  Shared parallel matrices
   BLAS/LAPACK       :  OpenBLAS 0.3.15  USE64BITINT DYNAMIC_ARCH NO_AFFINITY SkylakeX SINGLE_THREADED
        Core in use  :  SkylakeX
   Copyright (c) 2011-2014, The OpenBLAS Project




***************************************
The coordinates will be read from file: T1_XTB_OPT_XYZ.xyz
***************************************


Your calculation utilizes the atom-pairwise dispersion correction
with the Becke-Johnson damping scheme (D3BJ)
Cite in your paper:
S.Grimme, S.Ehrlich, L.Goerigk, J Comput Chem, (2011), 32, 1456–1465 
S.Grimme, J.Antony, S.Ehrlich and H.Krieg, J.Chem.Phys., 132, (2010), 154104 
   

================================================================================

----- Orbital basis set information -----
Your calculation utilizes the basis: def2-SVP
   F. Weigend and R. Ahlrichs, Phys. Chem. Chem. Phys. 7, 3297 (2005).

----- AuxJ basis set information -----
Your calculation utilizes the auxiliary basis: def2/J
   F. Weigend, Phys. Chem. Chem. Phys. 8, 1057 (2006).

================================================================================
                                        WARNINGS
                       Please study these warnings very carefully!
================================================================================

INFO   : Checking CIS options ...

WARNING: (CIS/TDDFT): IROOTMULT=TRIPLETS needs TRIPLETS set to TRUE
  ===> : ajusting flags

WARNING: CIS/ROCIS methods need fully converged wavefunctions
  ===> : Setting SCFConvForced true
         You can overwrite this default with %scf ConvForced false 


INFO   : the flag for use of the SHARK integral package has been found!

================================================================================
                                       INPUT FILE
================================================================================
NAME = /dev/shm/slurm.malcolms.9850266/9850266/T1/T1_OPT.inp
|  1> ! PBE0 def2-SVP D3BJ def2/J RIJCOSX tightSCF noautostart miniprint nopop defgrid3 Opt
|  2> %maxcore    4000
|  3> %pal    nprocs  40  end
|  4> %geom	Convergence	loose
|  5> 	MaxIter	5
|  6> end
|  7> %tddft  PrintLevel  3
|  8> 	IRootMult	Triplet
|  9> 	NRoots	5
| 10> 	IRoot	1
| 11> 	TDA	True
| 12>         MaxDim  10
| 13> end
| 14> * xyzfile 0 1 T1_XTB_OPT_XYZ.xyz
| 15> 
| 16> 
| 17>                          ****END OF INPUT****
================================================================================

                       *****************************
                       * Geometry Optimization Run *
                       *****************************

Geometry optimization settings:
Update method            Update   .... BFGS
Choice of coordinates    CoordSys .... Z-matrix Internals
Initial Hessian          InHess   .... Almoef's Model

Convergence Tolerances:
Energy Change            TolE     ....  3.0000e-05 Eh
Max. Gradient            TolMAXG  ....  2.0000e-03 Eh/bohr
RMS Gradient             TolRMSG  ....  5.0000e-04 Eh/bohr
Max. Displacement        TolMAXD  ....  1.0000e-02 bohr
RMS Displacement         TolRMSD  ....  7.0000e-03 bohr
Strict Convergence                ....  False
------------------------------------------------------------------------------
                        ORCA OPTIMIZATION COORDINATE SETUP
------------------------------------------------------------------------------

The optimization will be done in new redundant internal coordinates
Making redundant internal coordinates   ...  (new redundants) done
Evaluating the initial hessian          ...  (Almloef) done
Evaluating the coordinates              ...  done
Calculating the B-matrix                .... done
Calculating the G-matrix                .... done
Diagonalizing the G-matrix              .... done
Small eigenvalue found = 1.386e-04
Small eigenvalue found = 9.782e-04
Small eigenvalue found = 2.764e-03
Small eigenvalue found = 3.786e-03
Small eigenvalue found = 5.016e-03
Small eigenvalue found = 5.462e-03
Small eigenvalue found = 1.010e-02
Small eigenvalue found = 1.186e-02
Small eigenvalue found = 1.605e-02
Small eigenvalue found = 1.743e-02
Small eigenvalue found = 1.989e-02
Small eigenvalue found = 2.139e-02
Small eigenvalue found = 2.829e-02
The first mode is                       ....  269
The number of degrees of freedom        ....  285

    -----------------------------------------------------------------
                    Redundant Internal Coordinates


    -----------------------------------------------------------------
         Definition                    Initial Value    Approx d2E/dq
    -----------------------------------------------------------------
      1. B(C   1,C   0)                  1.4069         0.587147   
      2. B(C   2,C   1)                  1.3984         0.605803   
      3. B(C   3,C   2)                  1.4278         0.543869   
      4. B(C   4,C   3)                  1.3687         0.675547   
      5. B(C   5,C   4)                  1.3978         0.607109   
      6. B(C   6,C   5)                  1.4021         0.597553   
      7. B(C   7,C   6)                  1.4790         0.450549   
      8. B(C   8,C   7)                  1.3967         0.609691   
      9. B(C   9,C   8)                  1.3835         0.639823   
     10. B(C  10,C   9)                  1.3842         0.638199   
     11. B(C  11,C  10)                  1.3969         0.609143   
     12. B(C  12,C  11)                  1.4749         0.457431   
     13. B(C  13,C  12)                  1.3979         0.606954   
     14. B(C  14,C  13)                  1.3862         0.633602   
     15. B(C  15,C  14)                  1.3806         0.646849   
     16. B(C  16,C  15)                  1.4031         0.595453   
     17. B(C  17,C  16)                  1.4480         0.504907   
     18. B(C  18,C  17)                  1.3432         0.741878   
     19. B(C  19,C  18)                  1.4473         0.506204   
     20. B(C  20,C  19)                  1.3987         0.605054   
     21. B(C  21,C  20)                  1.3795         0.649290   
     22. B(C  22,C  21)                  1.3923         0.619472   
     23. B(N  23,C  22)                  1.4009         0.537584   
     24. B(C  24,N  23)                  1.3818         0.576700   
     25. B(C  25,C  24)                  1.3882         0.629010   
     26. B(C  26,C  25)                  1.3808         0.646283   
     27. B(C  27,C  26)                  1.3928         0.618502   
     28. B(C  28,C  27)                  1.3799         0.648308   
     29. B(C  29,C  28)                  1.3881         0.629093   
     30. B(C  29,C  24)                  1.4132         0.573842   
     31. B(C  30,C  29)                  1.4351         0.529452   
     32. B(C  31,C  30)                  1.3875         0.630526   
     33. B(C  32,C  31)                  1.3805         0.647069   
     34. B(C  33,C  32)                  1.3926         0.618788   
     35. B(C  34,C  33)                  1.3817         0.644136   
     36. B(C  35,C  34)                  1.3874         0.630717   
     37. B(C  35,C  30)                  1.4138         0.572568   
     38. B(C  35,N  23)                  1.3812         0.577928   
     39. B(C  36,C  22)                  1.3951         0.613288   
     40. B(C  37,C  36)                  1.3761         0.657582   
     41. B(C  37,C  19)                  1.3992         0.603986   
     42. B(N  38,C  16)                  1.3297         0.698403   
     43. B(N  38,C  12)                  1.3224         0.717278   
     44. B(N  39,C  11)                  1.3253         0.709763   
     45. B(N  39,C   7)                  1.3204         0.722756   
     46. B(N  40,C   6)                  1.3083         0.755519   
     47. B(N  40,C   2)                  1.3541         0.638489   
     48. B(C  41,C   0)                  1.3925         0.619032   
     49. B(C  42,C  41)                  1.4296         0.540173   
     50. B(C  43,C  42)                  1.3640         0.687407   
     51. B(C  44,C  43)                  1.4078         0.585204   
     52. B(N  45,C  44)                  1.3892         0.561316   
     53. B(C  46,N  45)                  1.3832         0.573670   
     54. B(C  47,C  46)                  1.3890         0.627137   
     55. B(C  48,C  47)                  1.3812         0.645347   
     56. B(C  49,C  48)                  1.3924         0.619267   
     57. B(C  50,C  49)                  1.3818         0.643902   
     58. B(C  51,C  50)                  1.3863         0.633254   
     59. B(C  51,C  46)                  1.4142         0.571702   
     60. B(C  52,C  51)                  1.4363         0.527046   
     61. B(C  53,C  52)                  1.3858         0.634517   
     62. B(C  54,C  53)                  1.3822         0.643048   
     63. B(C  55,C  54)                  1.3921         0.619906   
     64. B(C  56,C  55)                  1.3823         0.642654   
     65. B(C  57,C  56)                  1.3880         0.629323   
     66. B(C  57,C  52)                  1.4148         0.570326   
     67. B(C  57,N  45)                  1.3830         0.574167   
     68. B(C  58,C  44)                  1.4091         0.582522   
     69. B(C  59,C  58)                  1.3621         0.692149   
     70. B(C  59,C  41)                  1.4289         0.541506   
     71. B(H  60,C   0)                  1.0809         0.372349   
     72. B(H  61,C   1)                  1.0799         0.373766   
     73. B(H  62,C   3)                  1.0796         0.374091   
     74. B(H  63,C   4)                  1.0814         0.371670   
     75. B(H  64,C   5)                  1.0779         0.376455   
     76. B(H  65,C   8)                  1.0790         0.374936   
     77. B(H  66,C   9)                  1.0812         0.371987   
     78. B(H  67,C  10)                  1.0787         0.375388   
     79. B(H  68,C  13)                  1.0785         0.375670   
     80. B(H  69,C  14)                  1.0813         0.371848   
     81. B(H  70,C  15)                  1.0798         0.373874   
     82. B(H  71,C  17)                  1.0818         0.371094   
     83. B(H  72,H  60)                  3.0025         0.000061   
     84. B(H  72,C  18)                  1.0819         0.370950   
     85. B(H  73,C  20)                  1.0799         0.373689   
     86. B(H  74,C  21)                  1.0792         0.374704   
     87. B(H  75,C  25)                  1.0795         0.374203   
     88. B(H  76,C  26)                  1.0798         0.373898   
     89. B(H  77,C  27)                  1.0797         0.374034   
     90. B(H  78,C  28)                  1.0795         0.374303   
     91. B(H  79,C  31)                  1.0794         0.374444   
     92. B(H  80,C  32)                  1.0800         0.373612   
     93. B(H  81,C  33)                  1.0803         0.373195   
     94. B(H  82,C  34)                  1.0793         0.374603   
     95. B(H  83,C  36)                  1.0801         0.373399   
     96. B(H  84,C  37)                  1.0792         0.374712   
     97. B(H  85,C  42)                  1.0798         0.373887   
     98. B(H  86,H  75)                  2.5266         0.000352   
     99. B(H  86,C  43)                  1.0794         0.374419   
    100. B(H  87,H  74)                  2.6017         0.000267   
    101. B(H  87,C  47)                  1.0789         0.375134   
    102. B(H  88,C  48)                  1.0794         0.374455   
    103. B(H  89,H  79)                  3.1529         0.000035   
    104. B(H  89,C  49)                  1.0795         0.374249   
    105. B(H  90,C  50)                  1.0793         0.374511   
    106. B(H  91,H  77)                  3.1634         0.000034   
    107. B(H  91,C  53)                  1.0792         0.374692   
    108. B(H  92,C  54)                  1.0798         0.373828   
    109. B(H  93,C  55)                  1.0800         0.373531   
    110. B(H  94,C  56)                  1.0787         0.375390   
    111. B(H  95,C  58)                  1.0805         0.372827   
    112. B(H  96,C  59)                  1.0782         0.376005   
    113. A(C   1,C   0,H  60)          115.6446         0.351658   
    114. A(C  41,C   0,H  60)          118.2162         0.354821   
    115. A(C   1,C   0,C  41)          126.1329         0.429719   
    116. A(C   0,C   1,C   2)          123.0502         0.428058   
    117. A(C   2,C   1,H  61)          116.7941         0.353752   
    118. A(C   0,C   1,H  61)          120.1557         0.351884   
    119. A(C   1,C   2,N  40)          119.0386         0.431709   
    120. A(C   1,C   2,C   3)          121.5473         0.422232   
    121. A(C   3,C   2,N  40)          119.4139         0.423445   
    122. A(C   4,C   3,H  62)          121.4074         0.360416   
    123. A(C   2,C   3,C   4)          119.5403         0.430553   
    124. A(C   2,C   3,H  62)          119.0508         0.347418   
    125. A(C   5,C   4,H  63)          119.7549         0.353544   
    126. A(C   3,C   4,H  63)          120.6629         0.360017   
    127. A(C   3,C   4,C   5)          119.5821         0.439164   
    128. A(C   4,C   5,H  64)          121.2699         0.354311   
    129. A(C   6,C   5,H  64)          120.9151         0.353360   
    130. A(C   4,C   5,C   6)          117.7797         0.429574   
    131. A(C   5,C   6,N  40)          122.8968         0.443912   
    132. A(C   5,C   6,C   7)          120.3401         0.407343   
    133. A(C   7,C   6,N  40)          116.7624         0.421939   
    134. A(C   6,C   7,N  39)          116.8965         0.418614   
    135. A(C   6,C   7,C   8)          120.7921         0.408795   
    136. A(C   8,C   7,N  39)          122.3091         0.441972   
    137. A(C   9,C   8,H  65)          121.0902         0.357236   
    138. A(C   7,C   8,C   9)          118.1615         0.435216   
    139. A(C   7,C   8,H  65)          120.7240         0.354323   
    140. A(C   8,C   9,C  10)          119.2758         0.438816   
    141. A(C  10,C   9,H  66)          120.3340         0.356603   
    142. A(C   8,C   9,H  66)          120.3889         0.356757   
    143. A(C   9,C  10,H  67)          120.4146         0.357154   
    144. A(C   9,C  10,C  11)          118.5523         0.434947   
    145. A(C  11,C  10,H  67)          121.0190         0.354341   
    146. A(C  10,C  11,N  39)          121.7487         0.440454   
    147. A(C  10,C  11,C  12)          122.1306         0.409829   
    148. A(C  12,C  11,N  39)          116.1137         0.418392   
    149. A(C  13,C  12,N  38)          122.2320         0.441006   
    150. A(C  11,C  12,N  38)          115.8313         0.419178   
    151. A(C  11,C  12,C  13)          121.9365         0.409568   
    152. A(C  12,C  13,C  14)          118.3184         0.434100   
    153. A(C  14,C  13,H  68)          120.4932         0.356761   
    154. A(C  12,C  13,H  68)          121.1788         0.354170   
    155. A(C  13,C  14,H  69)          120.2465         0.356142   
    156. A(C  13,C  14,C  15)          119.2199         0.439108   
    157. A(C  15,C  14,H  69)          120.5336         0.357397   
    158. A(C  14,C  15,H  70)          120.9920         0.357727   
    159. A(C  14,C  15,C  16)          118.7513         0.434222   
    160. A(C  16,C  15,H  70)          120.2513         0.352738   
    161. A(C  17,C  16,N  38)          117.8403         0.424609   
    162. A(C  15,C  16,N  38)          121.4822         0.437376   
    163. A(C  15,C  16,C  17)          120.6760         0.415397   
    164. A(C  16,C  17,H  71)          115.5661         0.342644   
    165. A(C  16,C  17,C  18)          123.1242         0.432051   
    166. A(C  18,C  17,H  71)          121.2836         0.365727   
    167. A(C  19,C  18,H  72)          117.0113         0.342770   
    168. A(C  17,C  18,H  72)          117.6518         0.365703   
    169. A(C  17,C  18,C  19)          125.3281         0.432250   
    170. A(C  20,C  19,C  37)          117.8574         0.430139   
    171. A(C  18,C  19,C  37)          122.0800         0.416640   
    172. A(C  18,C  19,C  20)          120.0544         0.416771   
    173. A(C  19,C  20,H  73)          119.0908         0.353665   
    174. A(C  21,C  20,H  73)          119.6237         0.357926   
    175. A(C  19,C  20,C  21)          121.2852         0.435770   
    176. A(C  20,C  21,C  22)          120.1848         0.437623   
    177. A(C  22,C  21,H  74)          119.7306         0.355243   
    178. A(C  20,C  21,H  74)          120.0483         0.358091   
    179. A(N  23,C  22,C  36)          119.4215         0.419539   
    180. A(C  21,C  22,C  36)          119.0998         0.433150   
    181. A(C  21,C  22,N  23)          121.4784         0.420291   
    182. A(C  22,N  23,C  24)          125.1217         0.412287   
    183. A(C  24,N  23,C  35)          108.2332         0.417626   
    184. A(C  22,N  23,C  35)          126.2289         0.412443   
    185. A(C  25,C  24,C  29)          120.8256         0.429185   
    186. A(N  23,C  24,C  29)          109.4142         0.419821   
    187. A(N  23,C  24,C  25)          129.7137         0.426766   
    188. A(C  24,C  25,C  26)          118.0012         0.438463   
    189. A(C  26,C  25,H  75)          120.6681         0.357727   
    190. A(C  24,C  25,H  75)          121.3306         0.356084   
    191. A(C  25,C  26,C  27)          121.4489         0.437133   
    192. A(C  27,C  26,H  76)          119.3002         0.355019   
    193. A(C  25,C  26,H  76)          119.2491         0.357677   
    194. A(C  26,C  27,C  28)          120.8874         0.437380   
    195. A(C  28,C  27,H  77)          119.9340         0.357890   
    196. A(C  26,C  27,H  77)          119.1765         0.355041   
    197. A(C  27,C  28,C  29)          118.6663         0.438721   
    198. A(C  29,C  28,H  78)          120.2801         0.356109   
    199. A(C  27,C  28,H  78)          121.0535         0.357934   
    200. A(C  24,C  29,C  28)          120.1290         0.429195   
    201. A(C  28,C  29,C  30)          133.4178         0.423052   
    202. A(C  24,C  29,C  30)          106.4531         0.416174   
    203. A(C  31,C  30,C  35)          120.1477         0.429200   
    204. A(C  29,C  30,C  35)          106.5751         0.416009   
    205. A(C  29,C  30,C  31)          133.2711         0.423224   
    206. A(C  30,C  31,C  32)          118.6327         0.438750   
    207. A(C  32,C  31,H  79)          121.0131         0.357840   
    208. A(C  30,C  31,H  79)          120.3531         0.356269   
    209. A(C  31,C  32,C  33)          120.8672         0.437265   
    210. A(C  33,C  32,H  80)          119.2685         0.355001   
    211. A(C  31,C  32,H  80)          119.8617         0.357705   
    212. A(C  34,C  33,H  81)          119.1834         0.357361   
    213. A(C  32,C  33,C  34)          121.5434         0.436907   
    214. A(C  32,C  33,H  81)          119.2719         0.354933   
    215. A(C  33,C  34,C  35)          117.8673         0.438414   
    216. A(C  33,C  34,H  82)          120.7850         0.357590   
    217. A(C  35,C  34,H  82)          121.3408         0.356313   
    218. A(N  23,C  35,C  30)          109.3236         0.419814   
    219. A(C  30,C  35,C  34)          120.9222         0.429223   
    220. A(N  23,C  35,C  34)          129.7006         0.427136   
    221. A(C  22,C  36,C  37)          120.4362         0.437833   
    222. A(C  37,C  36,H  83)          120.2454         0.358652   
    223. A(C  22,C  36,H  83)          119.3148         0.354429   
    224. A(C  19,C  37,C  36)          121.1218         0.436628   
    225. A(C  36,C  37,H  84)          119.0900         0.358866   
    226. A(C  19,C  37,H  84)          119.7802         0.353723   
    227. A(C  12,N  38,C  16)          119.9621         0.449377   
    228. A(C   7,N  39,C  11)          119.9423         0.451318   
    229. A(C   2,N  40,C   6)          120.7827         0.446310   
    230. A(C  42,C  41,C  59)          116.1512         0.413375   
    231. A(C   0,C  41,C  59)          123.6191         0.423536   
    232. A(C   0,C  41,C  42)          120.2232         0.423349   
    233. A(C  43,C  42,H  85)          119.9240         0.361453   
    234. A(C  41,C  42,H  85)          118.0896         0.346988   
    235. A(C  41,C  42,C  43)          121.9691         0.431372   
    236. A(C  44,C  43,H  86)          119.1270         0.351790   
    237. A(C  42,C  43,H  86)          120.1719         0.361541   
    238. A(C  42,C  43,C  44)          120.6133         0.437634   
    239. A(N  45,C  44,C  58)          119.7059         0.418921   
    240. A(C  43,C  44,C  58)          118.5062         0.424811   
    241. A(C  43,C  44,N  45)          121.7871         0.419265   
    242. A(C  46,N  45,C  57)          108.1591         0.416749   
    243. A(C  44,N  45,C  57)          126.6012         0.415139   
    244. A(C  44,N  45,C  46)          125.0664         0.415075   
    245. A(C  47,C  46,C  51)          120.7221         0.428669   
    246. A(N  45,C  46,C  51)          109.4676         0.419147   
    247. A(N  45,C  46,C  47)          129.7432         0.426136   
    248. A(C  48,C  47,H  87)          120.4907         0.357790   
    249. A(C  46,C  47,H  87)          121.4778         0.356054   
    250. A(C  46,C  47,C  48)          118.0297         0.438113   
    251. A(C  49,C  48,H  88)          119.3431         0.355183   
    252. A(C  47,C  48,H  88)          119.2273         0.357680   
    253. A(C  47,C  48,C  49)          121.4248         0.437117   
    254. A(C  50,C  49,H  89)          119.8815         0.357510   
    255. A(C  48,C  49,H  89)          119.2155         0.355150   
    256. A(C  48,C  49,C  50)          120.8977         0.436940   
    257. A(C  49,C  50,H  90)          121.0203         0.357553   
    258. A(C  51,C  50,H  90)          120.3518         0.356541   
    259. A(C  49,C  50,C  51)          118.6275         0.438703   
    260. A(C  50,C  51,C  52)          133.3372         0.423206   
    261. A(C  46,C  51,C  52)          106.4401         0.415561   
    262. A(C  46,C  51,C  50)          120.2225         0.429415   
    263. A(C  53,C  52,C  57)          120.2556         0.429383   
    264. A(C  51,C  52,C  57)          106.5768         0.415383   
    265. A(C  51,C  52,C  53)          133.1590         0.423357   
    266. A(C  52,C  53,C  54)          118.6135         0.438756   
    267. A(C  54,C  53,H  91)          120.9776         0.357501   
    268. A(C  52,C  53,H  91)          120.4076         0.356691   
    269. A(C  53,C  54,C  55)          120.8534         0.436917   
    270. A(C  55,C  54,H  92)          119.3116         0.355144   
    271. A(C  53,C  54,H  92)          119.8297         0.357361   
    272. A(C  54,C  55,C  56)          121.5227         0.436868   
    273. A(C  56,C  55,H  93)          119.1659         0.357276   
    274. A(C  54,C  55,H  93)          119.3095         0.355096   
    275. A(C  55,C  56,C  57)          117.9272         0.438057   
    276. A(C  57,C  56,H  94)          121.4696         0.356306   
    277. A(C  55,C  56,H  94)          120.5934         0.357577   
    278. A(C  52,C  57,C  56)          120.7808         0.428751   
    279. A(N  45,C  57,C  56)          129.7612         0.426467   
    280. A(N  45,C  57,C  52)          109.3549         0.419032   
    281. A(C  44,C  58,C  59)          121.0577         0.437814   
    282. A(C  59,C  58,H  95)          120.1892         0.361702   
    283. A(C  44,C  58,H  95)          118.7008         0.351264   
    284. A(C  41,C  59,C  58)          121.5987         0.432097   
    285. A(C  58,C  59,H  96)          119.0653         0.362227   
    286. A(C  41,C  59,H  96)          119.3327         0.347462   
    287. D(H  61,C   1,C   0,C  41)     -2.3706         0.023713   
    288. D(C   2,C   1,C   0,H  60)     -1.4052         0.023713   
    289. D(H  61,C   1,C   0,H  60)    178.5671         0.023713   
    290. D(C   2,C   1,C   0,C  41)    177.6571         0.023713   
    291. D(C   3,C   2,C   1,H  61)     -1.4161         0.025327   
    292. D(N  40,C   2,C   1,H  61)    178.7535         0.025327   
    293. D(C   3,C   2,C   1,C   0)    178.5571         0.025327   
    294. D(N  40,C   2,C   1,C   0)     -1.2733         0.025327   
    295. D(H  62,C   3,C   2,C   1)     -0.0033         0.020220   
    296. D(H  62,C   3,C   2,N  40)    179.8265         0.020220   
    297. D(C   4,C   3,C   2,N  40)      0.2567         0.020220   
    298. D(C   4,C   3,C   2,C   1)   -179.5731         0.020220   
    299. D(C   5,C   4,C   3,H  62)   -179.1988         0.031957   
    300. D(C   5,C   4,C   3,C   2)      0.3607         0.031957   
    301. D(H  63,C   4,C   3,H  62)      0.6796         0.031957   
    302. D(H  63,C   4,C   3,C   2)   -179.7610         0.031957   
    303. D(H  64,C   5,C   4,C   3)   -178.4512         0.025442   
    304. D(H  64,C   5,C   4,H  63)      1.6693         0.025442   
    305. D(C   6,C   5,C   4,H  63)    179.5284         0.025442   
    306. D(C   6,C   5,C   4,C   3)     -0.5921         0.025442   
    307. D(N  40,C   6,C   5,C   4)      0.2192         0.024605   
    308. D(C   7,C   6,C   5,H  64)     -1.6283         0.024605   
    309. D(N  40,C   6,C   5,H  64)    178.0863         0.024605   
    310. D(C   7,C   6,C   5,C   4)   -179.4954         0.024605   
    311. D(N  39,C   7,C   6,N  40)    -41.7309         0.013837   
    312. D(N  39,C   7,C   6,C   5)    138.0007         0.013837   
    313. D(C   8,C   7,C   6,N  40)    137.7354         0.013837   
    314. D(C   8,C   7,C   6,C   5)    -42.5330         0.013837   
    315. D(H  65,C   8,C   7,C   6)     -0.2882         0.025671   
    316. D(C   9,C   8,C   7,C   6)   -178.5137         0.025671   
    317. D(C   9,C   8,C   7,N  39)      0.9232         0.025671   
    318. D(H  65,C   8,C   7,N  39)    179.1487         0.025671   
    319. D(C  10,C   9,C   8,C   7)     -0.7685         0.028442   
    320. D(H  66,C   9,C   8,H  65)      0.5987         0.028442   
    321. D(H  66,C   9,C   8,C   7)    178.8175         0.028442   
    322. D(C  10,C   9,C   8,H  65)   -178.9872         0.028442   
    323. D(H  67,C  10,C   9,H  66)     -1.0098         0.028288   
    324. D(H  67,C  10,C   9,C   8)    178.5764         0.028288   
    325. D(C  11,C  10,C   9,C   8)     -0.0701         0.028288   
    326. D(C  11,C  10,C   9,H  66)   -179.6563         0.028288   
    327. D(N  39,C  11,C  10,H  67)   -177.7811         0.025623   
    328. D(N  39,C  11,C  10,C   9)      0.8569         0.025623   
    329. D(C  12,C  11,C  10,H  67)      1.2148         0.025623   
    330. D(C  12,C  11,C  10,C   9)    179.8528         0.025623   
    331. D(N  38,C  12,C  11,N  39)     25.1371         0.014256   
    332. D(N  38,C  12,C  11,C  10)   -153.9120         0.014256   
    333. D(C  13,C  12,C  11,N  39)   -154.6994         0.014256   
    334. D(C  13,C  12,C  11,C  10)     26.2515         0.014256   
    335. D(H  68,C  13,C  12,N  38)   -177.2476         0.025428   
    336. D(H  68,C  13,C  12,C  11)      2.5785         0.025428   
    337. D(C  14,C  13,C  12,N  38)      1.6282         0.025428   
    338. D(C  14,C  13,C  12,C  11)   -178.5457         0.025428   
    339. D(H  69,C  14,C  13,H  68)     -1.3896         0.027855   
    340. D(H  69,C  14,C  13,C  12)    179.7266         0.027855   
    341. D(C  15,C  14,C  13,H  68)    178.5877         0.027855   
    342. D(C  15,C  14,C  13,C  12)     -0.2961         0.027855   
    343. D(H  70,C  15,C  14,H  69)     -0.4620         0.029113   
    344. D(H  70,C  15,C  14,C  13)    179.5608         0.029113   
    345. D(C  16,C  15,C  14,H  69)    178.6948         0.029113   
    346. D(C  16,C  15,C  14,C  13)     -1.2824         0.029113   
    347. D(N  38,C  16,C  15,C  14)      1.7126         0.024423   
    348. D(C  17,C  16,C  15,H  70)      0.4269         0.024423   
    349. D(C  17,C  16,C  15,C  14)   -178.7364         0.024423   
    350. D(N  38,C  16,C  15,H  70)   -179.1241         0.024423   
    351. D(H  71,C  17,C  16,N  38)    171.1553         0.017368   
    352. D(H  71,C  17,C  16,C  15)     -8.4116         0.017368   
    353. D(C  18,C  17,C  16,N  38)    -10.6833         0.017368   
    354. D(C  18,C  17,C  16,C  15)    169.7498         0.017368   
    355. D(H  72,C  18,C  17,H  71)    175.9532         0.039169   
    356. D(H  72,C  18,C  17,C  16)     -2.1060         0.039169   
    357. D(C  19,C  18,C  17,H  71)     -2.9291         0.039169   
    358. D(C  19,C  18,C  17,C  16)    179.0116         0.039169   
    359. D(C  37,C  19,C  18,H  72)    159.9217         0.017459   
    360. D(C  20,C  19,C  18,H  72)    -19.0192         0.017459   
    361. D(C  20,C  19,C  18,C  17)    159.8696         0.017459   
    362. D(C  37,C  19,C  18,C  17)    -21.1895         0.017459   
    363. D(H  73,C  20,C  19,C  37)    179.9363         0.025261   
    364. D(H  73,C  20,C  19,C  18)     -1.0787         0.025261   
    365. D(C  21,C  20,C  19,C  37)     -0.2837         0.025261   
    366. D(C  21,C  20,C  19,C  18)    178.7013         0.025261   
    367. D(H  74,C  21,C  20,H  73)      1.2947         0.029349   
    368. D(H  74,C  21,C  20,C  19)   -178.4842         0.029349   
    369. D(C  22,C  21,C  20,H  73)    179.0979         0.029349   
    370. D(C  22,C  21,C  20,C  19)     -0.6809         0.029349   
    371. D(C  36,C  22,C  21,H  74)    179.2249         0.026551   
    372. D(C  36,C  22,C  21,C  20)      1.4147         0.026551   
    373. D(N  23,C  22,C  21,H  74)     -0.5845         0.026551   
    374. D(N  23,C  22,C  21,C  20)   -178.3948         0.026551   
    375. D(C  35,N  23,C  22,C  36)    128.0513         0.022980   
    376. D(C  35,N  23,C  22,C  21)    -52.1399         0.022980   
    377. D(C  24,N  23,C  22,C  36)    -43.6602         0.022980   
    378. D(C  24,N  23,C  22,C  21)    136.1487         0.022980   
    379. D(C  29,C  24,N  23,C  35)      0.0831         0.026656   
    380. D(C  29,C  24,N  23,C  22)    173.0505         0.026656   
    381. D(C  25,C  24,N  23,C  35)    177.5713         0.026656   
    382. D(C  25,C  24,N  23,C  22)     -9.4613         0.026656   
    383. D(H  75,C  25,C  24,C  29)    177.7324         0.027427   
    384. D(H  75,C  25,C  24,N  23)      0.4913         0.027427   
    385. D(C  26,C  25,C  24,C  29)     -2.2074         0.027427   
    386. D(C  26,C  25,C  24,N  23)   -179.4485         0.027427   
    387. D(H  76,C  26,C  25,H  75)      0.3166         0.029059   
    388. D(H  76,C  26,C  25,C  24)   -179.7432         0.029059   
    389. D(C  27,C  26,C  25,H  75)   -179.1937         0.029059   
    390. D(C  27,C  26,C  25,C  24)      0.7466         0.029059   
    391. D(H  77,C  27,C  26,H  76)      0.8106         0.026463   
    392. D(H  77,C  27,C  26,C  25)   -179.6794         0.026463   
    393. D(C  28,C  27,C  26,H  76)   -178.6610         0.026463   
    394. D(C  28,C  27,C  26,C  25)      0.8490         0.026463   
    395. D(H  78,C  28,C  27,H  77)     -0.5489         0.029254   
    396. D(H  78,C  28,C  27,C  26)    178.9187         0.029254   
    397. D(C  29,C  28,C  27,H  77)    179.5793         0.029254   
    398. D(C  29,C  28,C  27,C  26)     -0.9531         0.029254   
    399. D(C  30,C  29,C  28,H  78)     -0.2278         0.027435   
    400. D(C  30,C  29,C  28,C  27)    179.6450         0.027435   
    401. D(C  24,C  29,C  28,H  78)    179.6223         0.027435   
    402. D(C  24,C  29,C  28,C  27)     -0.5049         0.027435   
    403. D(C  30,C  29,C  24,C  25)   -177.9870         0.022602   
    404. D(C  30,C  29,C  24,N  23)     -0.2369         0.022602   
    405. D(C  28,C  29,C  24,C  25)      2.1266         0.022602   
    406. D(C  28,C  29,C  24,N  23)    179.8766         0.022602   
    407. D(C  35,C  30,C  29,C  28)   -179.8403         0.019133   
    408. D(C  35,C  30,C  29,C  24)      0.2949         0.019133   
    409. D(C  31,C  30,C  29,C  28)      1.0947         0.019133   
    410. D(C  31,C  30,C  29,C  24)   -178.7701         0.019133   
    411. D(C  32,C  31,C  30,C  35)     -0.2108         0.027568   
    412. D(C  32,C  31,C  30,C  29)    178.7528         0.027568   
    413. D(H  79,C  31,C  30,C  29)     -0.8780         0.027568   
    414. D(H  79,C  31,C  30,C  35)   -179.8417         0.027568   
    415. D(H  80,C  32,C  31,H  79)     -0.5103         0.029134   
    416. D(H  80,C  32,C  31,C  30)    179.8614         0.029134   
    417. D(C  33,C  32,C  31,H  79)    178.8929         0.029134   
    418. D(C  33,C  32,C  31,C  30)     -0.7354         0.029134   
    419. D(H  81,C  33,C  32,H  80)      0.3829         0.026489   
    420. D(H  81,C  33,C  32,C  31)   -179.0238         0.026489   
    421. D(C  34,C  33,C  32,H  80)    179.9663         0.026489   
    422. D(C  34,C  33,C  32,C  31)      0.5596         0.026489   
    423. D(H  82,C  34,C  33,H  81)      1.1125         0.028853   
    424. D(H  82,C  34,C  33,C  32)   -178.4713         0.028853   
    425. D(C  35,C  34,C  33,H  81)   -179.8332         0.028853   
    426. D(C  35,C  34,C  33,C  32)      0.5830         0.028853   
    427. D(C  30,C  35,C  34,H  82)    177.5178         0.027586   
    428. D(N  23,C  35,C  34,H  82)      0.4784         0.027586   
    429. D(N  23,C  35,C  34,C  33)   -178.5704         0.027586   
    430. D(C  34,C  35,C  30,C  31)      1.3733         0.022497   
    431. D(C  34,C  35,C  30,C  29)   -177.8394         0.022497   
    432. D(N  23,C  35,C  30,C  31)    178.9598         0.022497   
    433. D(N  23,C  35,C  30,C  29)     -0.2529         0.022497   
    434. D(C  34,C  35,N  23,C  24)    177.4178         0.026777   
    435. D(C  34,C  35,N  23,C  22)      4.5491         0.026777   
    436. D(C  30,C  35,C  34,C  33)     -1.5310         0.027586   
    437. D(C  30,C  35,N  23,C  24)      0.1090         0.026777   
    438. D(C  30,C  35,N  23,C  22)   -172.7596         0.026777   
    439. D(H  83,C  36,C  22,N  23)     -2.0771         0.025993   
    440. D(H  83,C  36,C  22,C  21)    178.1095         0.025993   
    441. D(C  37,C  36,C  22,N  23)    178.6168         0.025993   
    442. D(C  37,C  36,C  22,C  21)     -1.1966         0.025993   
    443. D(H  84,C  37,C  36,H  83)      1.9700         0.030158   
    444. D(H  84,C  37,C  36,C  22)   -178.7303         0.030158   
    445. D(C  19,C  37,C  36,H  83)   -179.0655         0.030158   
    446. D(C  19,C  37,C  36,C  22)      0.2341         0.030158   
    447. D(H  84,C  37,C  19,C  20)    179.4645         0.025167   
    448. D(H  84,C  37,C  19,C  18)      0.5014         0.025167   
    449. D(C  36,C  37,C  19,C  20)      0.5071         0.025167   
    450. D(C  36,C  37,C  19,C  18)   -178.4560         0.025167   
    451. D(C  12,N  38,C  16,C  17)    179.9977         0.036511   
    452. D(C  12,N  38,C  16,C  15)     -0.4391         0.036511   
    453. D(C  16,N  38,C  12,C  13)     -1.2588         0.038713   
    454. D(C  16,N  38,C  12,C  11)    178.9052         0.038713   
    455. D(C   7,N  39,C  11,C  12)   -179.7946         0.037827   
    456. D(C   7,N  39,C  11,C  10)     -0.7416         0.037827   
    457. D(C  11,N  39,C   7,C   8)     -0.1658         0.039367   
    458. D(C  11,N  39,C   7,C   6)    179.2918         0.039367   
    459. D(C   2,N  40,C   6,C   7)   -179.8671         0.043422   
    460. D(C   2,N  40,C   6,C   5)      0.4088         0.043422   
    461. D(C   6,N  40,C   2,C   3)     -0.6440         0.030042   
    462. D(C   6,N  40,C   2,C   1)    179.1901         0.030042   
    463. D(C  59,C  41,C   0,H  60)    178.9909         0.026511   
    464. D(C  59,C  41,C   0,C   1)     -0.0497         0.026511   
    465. D(C  42,C  41,C   0,H  60)     -0.0384         0.026511   
    466. D(C  42,C  41,C   0,C   1)   -179.0790         0.026511   
    467. D(H  85,C  42,C  41,C  59)    179.0847         0.019938   
    468. D(H  85,C  42,C  41,C   0)     -1.8158         0.019938   
    469. D(C  43,C  42,C  41,C  59)     -2.4312         0.019938   
    470. D(C  43,C  42,C  41,C   0)    176.6683         0.019938   
    471. D(H  86,C  43,C  42,H  85)      1.5572         0.033180   
    472. D(H  86,C  43,C  42,C  41)   -176.8998         0.033180   
    473. D(C  44,C  43,C  42,H  85)    178.1220         0.033180   
    474. D(C  44,C  43,C  42,C  41)     -0.3350         0.033180   
    475. D(C  58,C  44,C  43,H  86)    179.2336         0.023548   
    476. D(C  58,C  44,C  43,C  42)      2.6332         0.023548   
    477. D(N  45,C  44,C  43,H  86)     -1.1006         0.023548   
    478. D(N  45,C  44,C  43,C  42)   -177.7009         0.023548   
    479. D(C  57,N  45,C  44,C  58)    133.4851         0.025170   
    480. D(C  57,N  45,C  44,C  43)    -46.1768         0.025170   
    481. D(C  46,N  45,C  44,C  58)    -41.1550         0.025170   
    482. D(C  46,N  45,C  44,C  43)    139.1830         0.025170   
    483. D(C  51,C  46,N  45,C  57)     -0.3948         0.026359   
    484. D(C  51,C  46,N  45,C  44)    175.0786         0.026359   
    485. D(C  47,C  46,N  45,C  57)    176.5864         0.026359   
    486. D(C  47,C  46,N  45,C  44)     -7.9401         0.026359   
    487. D(H  87,C  47,C  46,C  51)    176.4849         0.027254   
    488. D(H  87,C  47,C  46,N  45)     -0.2040         0.027254   
    489. D(C  48,C  47,C  46,C  51)     -3.0306         0.027254   
    490. D(C  48,C  47,C  46,N  45)   -179.7195         0.027254   
    491. D(H  88,C  48,C  47,H  87)      0.8143         0.028969   
    492. D(H  88,C  48,C  47,C  46)   -179.6652         0.028969   
    493. D(C  49,C  48,C  47,H  87)   -178.3758         0.028969   
    494. D(C  49,C  48,C  47,C  46)      1.1447         0.028969   
    495. D(H  89,C  49,C  48,H  88)      1.0328         0.026533   
    496. D(H  89,C  49,C  48,C  47)   -179.7781         0.026533   
    497. D(C  50,C  49,C  48,H  88)   -178.1303         0.026533   
    498. D(C  50,C  49,C  48,C  47)      1.0589         0.026533   
    499. D(H  90,C  50,C  49,H  89)     -0.7151         0.028830   
    500. D(H  90,C  50,C  49,C  48)    178.4424         0.028830   
    501. D(C  51,C  50,C  49,H  89)    179.5068         0.028830   
    502. D(C  51,C  50,C  49,C  48)     -1.3356         0.028830   
    503. D(C  52,C  51,C  50,H  90)     -0.5339         0.027823   
    504. D(C  52,C  51,C  50,C  49)    179.2457         0.027823   
    505. D(C  46,C  51,C  50,H  90)    179.6669         0.027823   
    506. D(C  46,C  51,C  50,C  49)     -0.5535         0.027823   
    507. D(C  52,C  51,C  46,C  47)   -177.0581         0.022426   
    508. D(C  52,C  51,C  46,N  45)      0.2420         0.022426   
    509. D(C  50,C  51,C  46,C  47)      2.7896         0.022426   
    510. D(C  50,C  51,C  46,N  45)   -179.9103         0.022426   
    511. D(C  57,C  52,C  51,C  50)   -179.8199         0.018955   
    512. D(C  57,C  52,C  51,C  46)     -0.0008         0.018955   
    513. D(C  53,C  52,C  51,C  50)      1.2856         0.018955   
    514. D(C  53,C  52,C  51,C  46)   -178.8954         0.018955   
    515. D(H  91,C  53,C  52,C  57)   -179.9874         0.027941   
    516. D(H  91,C  53,C  52,C  51)     -1.2140         0.027941   
    517. D(C  54,C  53,C  52,C  57)     -0.3968         0.027941   
    518. D(C  54,C  53,C  52,C  51)    178.3766         0.027941   
    519. D(H  92,C  54,C  53,H  91)     -0.6923         0.028749   
    520. D(H  92,C  54,C  53,C  52)    179.7194         0.028749   
    521. D(C  55,C  54,C  53,H  91)    178.4684         0.028749   
    522. D(C  55,C  54,C  53,C  52)     -1.1199         0.028749   
    523. D(H  93,C  55,C  54,H  92)      0.5936         0.026591   
    524. D(H  93,C  55,C  54,C  53)   -178.5714         0.026591   
    525. D(C  56,C  55,C  54,H  92)   -179.9135         0.026591   
    526. D(C  56,C  55,C  54,C  53)      0.9215         0.026591   
    527. D(H  94,C  56,C  55,H  93)      1.4457         0.028711   
    528. D(H  94,C  56,C  55,C  54)   -178.0479         0.028711   
    529. D(C  57,C  56,C  55,H  93)   -179.6778         0.028711   
    530. D(C  57,C  56,C  55,C  54)      0.8286         0.028711   
    531. D(N  45,C  57,C  56,H  94)      0.6309         0.027456   
    532. D(N  45,C  57,C  56,C  55)   -178.2352         0.027456   
    533. D(C  56,C  57,C  52,C  53)      2.1730         0.022314   
    534. D(C  56,C  57,C  52,C  51)   -176.8935         0.022314   
    535. D(N  45,C  57,C  52,C  53)    178.8260         0.022314   
    536. D(N  45,C  57,C  52,C  51)     -0.2405         0.022314   
    537. D(C  56,C  57,N  45,C  46)    176.6525         0.026407   
    538. D(C  56,C  57,N  45,C  44)      1.2677         0.026407   
    539. D(C  52,C  57,N  45,C  46)      0.3937         0.026407   
    540. D(C  52,C  57,C  56,C  55)     -2.3444         0.027456   
    541. D(C  52,C  57,N  45,C  44)   -174.9911         0.026407   
    542. D(C  52,C  57,C  56,H  94)    176.5217         0.027456   
    543. D(H  95,C  58,C  44,N  45)     -4.3742         0.023323   
    544. D(H  95,C  58,C  44,C  43)    175.2988         0.023323   
    545. D(C  59,C  58,C  44,N  45)    178.2505         0.023323   
    546. D(C  59,C  58,C  44,C  43)     -2.0765         0.023323   
    547. D(H  96,C  59,C  58,H  95)      1.2061         0.033678   
    548. D(H  96,C  59,C  58,C  44)    178.5426         0.033678   
    549. D(C  41,C  59,C  58,H  95)   -178.1317         0.033678   
    550. D(C  41,C  59,C  58,C  44)     -0.7952         0.033678   
    551. D(H  96,C  59,C  41,C  42)   -176.3437         0.020039   
    552. D(H  96,C  59,C  41,C   0)      4.5907         0.020039   
    553. D(C  58,C  59,C  41,C  42)      2.9924         0.020039   
    554. D(C  58,C  59,C  41,C   0)   -176.0732         0.020039   
    -----------------------------------------------------------------

Number of atoms                         .... 97
Number of degrees of freedom            .... 554

         *************************************************************
         *                GEOMETRY OPTIMIZATION CYCLE   1            *
         *************************************************************
---------------------------------
CARTESIAN COORDINATES (ANGSTROEM)
---------------------------------
  C      2.311459    2.210616   -0.586564
  C      2.929096    3.337666   -0.014110
  C      4.307996    3.424335    0.201888
  C      4.904858    4.596270    0.757607
  C      6.260226    4.640041    0.943392
  C      7.042468    3.540169    0.579701
  C      6.388328    2.421354    0.044594
  C      7.159638    1.222329   -0.348936
  C      8.371512    1.344292   -1.032421
  C      9.032363    0.186226   -1.401632
  C      8.484114   -1.040899   -1.070483
  C      7.276062   -1.065149   -0.369505
  C      6.620648   -2.327531    0.020471
  C      7.344907   -3.507053    0.216080
  C      6.649054   -4.657935    0.551914
  C      5.276332   -4.600261    0.687003
  C      4.631533   -3.367368    0.505667
  C      3.196737   -3.253719    0.664209
  C      2.553334   -2.075153    0.700592
  C      1.122313   -1.906723    0.836514
  C      0.599389   -0.687190    1.278967
  C     -0.761273   -0.490146    1.392466
  C     -1.647008   -1.508795    1.051276
  N     -3.034162   -1.327035    1.124457
  C     -3.941051   -1.734553    0.164838
  C     -3.718267   -2.226786   -1.113869
  C     -4.817239   -2.554057   -1.883122
  C     -6.114695   -2.384463   -1.406030
  C     -6.344809   -1.864761   -0.148570
  C     -5.254929   -1.531113    0.643743
  C     -5.126077   -0.977643    1.961508
  C     -6.046678   -0.594256    2.926239
  C     -5.579055   -0.109260    4.131142
  C     -4.212368   -0.019498    4.383194
  C     -3.276904   -0.398839    3.439739
  C     -3.740331   -0.864733    2.217794
  C     -1.138184   -2.735339    0.623627
  C      0.220226   -2.927427    0.516790
  N      5.308599   -2.271481    0.176015
  N      6.642366    0.049226   -0.033355
  N      5.092482    2.371160   -0.128248
  C      0.944602    2.037179   -0.788408
  C      0.450412    0.826533   -1.366264
  C     -0.884499    0.591351   -1.518605
  C     -1.832685    1.543818   -1.099428
  N     -3.198357    1.310014   -1.199695
  C     -4.135413    1.650439   -0.240849
  C     -3.951670    2.137586    1.046861
  C     -5.073912    2.394321    1.809978
  C     -6.355102    2.152595    1.321151
  C     -6.544865    1.625053    0.058193
  C     -5.432395    1.365853   -0.727406
  C     -5.261653    0.821107   -2.045395
  C     -6.151971    0.380572   -3.011675
  C     -5.650166   -0.067220   -4.219171
  C     -4.281210   -0.055345   -4.471893
  C     -3.375205    0.383947   -3.524786
  C     -3.869437    0.800793   -2.296529
  C     -1.370361    2.766012   -0.572190
  C     -0.038021    3.010256   -0.428602
  H      2.976625    1.409668   -0.877028
  H      2.335572    4.190040    0.281331
  H      4.274223    5.433576    1.016076
  H      6.730859    5.516950    1.366410
  H      8.108869    3.535608    0.736723
  H      8.764084    2.315929   -1.289465
  H      9.963420    0.238550   -1.948715
  H      8.971980   -1.955440   -1.369074
  H      8.419609   -3.523559    0.127444
  H      7.177591   -5.588530    0.706077
  H      4.705143   -5.480747    0.940808
  H      2.664874   -4.188041    0.784560
  H      3.150571   -1.174991    0.640892
  H      1.277745    0.114022    1.532172
  H     -1.143860    0.466823    1.712563
  H     -2.718289   -2.351259   -1.501120
  H     -4.667102   -2.942652   -2.879288
  H     -6.947326   -2.657365   -2.036845
  H     -7.349479   -1.716056    0.217188
  H     -7.105397   -0.681428    2.735057
  H     -6.278116    0.196961    4.895265
  H     -3.874980    0.349018    5.340985
  H     -2.221002   -0.347200    3.656967
  H     -1.821388   -3.537933    0.387507
  H      0.589551   -3.878106    0.164054
  H      1.167039    0.075640   -1.663777
  H     -1.227447   -0.353289   -1.912453
  H     -2.965247    2.305925    1.450079
  H     -4.953654    2.778480    2.811465
  H     -7.207486    2.369689    1.946970
  H     -7.536001    1.413658   -0.313143
  H     -7.214401    0.395178   -2.822802
  H     -6.325955   -0.419145   -4.984324
  H     -3.918022   -0.389241   -5.432662
  H     -2.320290    0.416230   -3.747635
  H     -2.092845    3.529288   -0.321185
  H      0.280888    3.965657   -0.043770

----------------------------
CARTESIAN COORDINATES (A.U.)
----------------------------
  NO LB      ZA    FRAG     MASS         X           Y           Z
   0 C     6.0000    0    12.011    4.368024    4.177459   -1.108445
   1 C     6.0000    0    12.011    5.535190    6.307274   -0.026665
   2 C     6.0000    0    12.011    8.140933    6.471055    0.381513
   3 C     6.0000    0    12.011    9.268839    8.685692    1.431669
   4 C     6.0000    0    12.011   11.830112    8.768407    1.782753
   5 C     6.0000    0    12.011   13.308335    6.689950    1.095476
   6 C     6.0000    0    12.011   12.072190    4.575696    0.084271
   7 C     6.0000    0    12.011   13.529755    2.309867   -0.659394
   8 C     6.0000    0    12.011   15.819865    2.540344   -1.950993
   9 C     6.0000    0    12.011   17.068692    0.351917   -2.648700
  10 C     6.0000    0    12.011   16.032652   -1.967014   -2.022920
  11 C     6.0000    0    12.011   13.749764   -2.012839   -0.698263
  12 C     6.0000    0    12.011   12.511211   -4.398395    0.038685
  13 C     6.0000    0    12.011   13.879862   -6.627369    0.408332
  14 C     6.0000    0    12.011   12.564891   -8.802221    1.042965
  15 C     6.0000    0    12.011    9.970823   -8.693233    1.298248
  16 C     6.0000    0    12.011    8.752328   -6.363404    0.955573
  17 C     6.0000    0    12.011    6.040958   -6.148637    1.255172
  18 C     6.0000    0    12.011    4.825102   -3.921471    1.323928
  19 C     6.0000    0    12.011    2.120863   -3.603184    1.580782
  20 C     6.0000    0    12.011    1.132681   -1.298601    2.416898
  21 C     6.0000    0    12.011   -1.438598   -0.926242    2.631379
  22 C     6.0000    0    12.011   -3.112394   -2.851210    1.986623
  23 N     7.0000    0    14.007   -5.733736   -2.507733    2.124915
  24 C     6.0000    0    12.011   -7.447506   -3.277831    0.311499
  25 C     6.0000    0    12.011   -7.026506   -4.208016   -2.104907
  26 C     6.0000    0    12.011   -9.103263   -4.826469   -3.558585
  27 C     6.0000    0    12.011  -11.555099   -4.505982   -2.657011
  28 C     6.0000    0    12.011  -11.989951   -3.523888   -0.280757
  29 C     6.0000    0    12.011   -9.930377   -2.893384    1.216497
  30 C     6.0000    0    12.011   -9.686882   -1.847477    3.706712
  31 C     6.0000    0    12.011  -11.426566   -1.122981    5.529790
  32 C     6.0000    0    12.011  -10.542886   -0.206472    7.806727
  33 C     6.0000    0    12.011   -7.960223   -0.036847    8.283037
  34 C     6.0000    0    12.011   -6.192452   -0.753696    6.500164
  35 C     6.0000    0    12.011   -7.068201   -1.634108    4.191024
  36 C     6.0000    0    12.011   -2.150857   -5.169042    1.178484
  37 C     6.0000    0    12.011    0.416167   -5.532035    0.976591
  38 N     7.0000    0    14.007   10.031798   -4.292476    0.332620
  39 N     7.0000    0    14.007   12.552252    0.093023   -0.063032
  40 N     7.0000    0    14.007    9.623396    4.480843   -0.242354
  41 C     6.0000    0    12.011    1.785038    3.849710   -1.489875
  42 C     6.0000    0    12.011    0.851155    1.561921   -2.581864
  43 C     6.0000    0    12.011   -1.671461    1.117492   -2.869748
  44 C     6.0000    0    12.011   -3.463272    2.917393   -2.077617
  45 N     7.0000    0    14.007   -6.044019    2.475567   -2.267095
  46 C     6.0000    0    12.011   -7.814799    3.118877   -0.455138
  47 C     6.0000    0    12.011   -7.467574    4.039452    1.978281
  48 C     6.0000    0    12.011   -9.588303    4.524611    3.420363
  49 C     6.0000    0    12.011  -12.009402    4.067816    2.496613
  50 C     6.0000    0    12.011  -12.368002    3.070904    0.109969
  51 C     6.0000    0    12.011  -10.265739    2.581088   -1.374599
  52 C     6.0000    0    12.011   -9.943082    1.551667   -3.865236
  53 C     6.0000    0    12.011  -11.625540    0.719177   -5.691241
  54 C     6.0000    0    12.011  -10.677267   -0.127027   -7.973078
  55 C     6.0000    0    12.011   -8.090315   -0.104587   -8.450653
  56 C     6.0000    0    12.011   -6.378214    0.725555   -6.660881
  57 C     6.0000    0    12.011   -7.312177    1.513279   -4.339811
  58 C     6.0000    0    12.011   -2.589607    5.227005   -1.081282
  59 C     6.0000    0    12.011   -0.071848    5.688559   -0.809940
  60 H     1.0000    0     1.008    5.625006    2.663887   -1.657343
  61 H     1.0000    0     1.008    4.413591    7.918028    0.531639
  62 H     1.0000    0     1.008    8.077111   10.267971    1.920105
  63 H     1.0000    0     1.008   12.719480   10.425524    2.582141
  64 H     1.0000    0     1.008   15.323541    6.681331    1.392204
  65 H     1.0000    0     1.008   16.561718    4.376472   -2.436735
  66 H     1.0000    0     1.008   18.828135    0.450795   -3.682537
  67 H     1.0000    0     1.008   16.954585   -3.695245   -2.587175
  68 H     1.0000    0     1.008   15.910755   -6.658562    0.240834
  69 H     1.0000    0     1.008   13.563681  -10.560791    1.334293
  70 H     1.0000    0     1.008    8.891433  -10.357111    1.777870
  71 H     1.0000    0     1.008    5.035882   -7.914250    1.482603
  72 H     1.0000    0     1.008    5.953717   -2.220411    1.211110
  73 H     1.0000    0     1.008    2.414587    0.215471    2.895386
  74 H     1.0000    0     1.008   -2.161582    0.882168    3.236276
  75 H     1.0000    0     1.008   -5.136822   -4.443236   -2.836705
  76 H     1.0000    0     1.008   -8.819545   -5.560806   -5.441065
  77 H     1.0000    0     1.008  -13.128544   -5.021691   -3.849080
  78 H     1.0000    0     1.008  -13.888503   -3.242876    0.410426
  79 H     1.0000    0     1.008  -13.427254   -1.287712    5.168510
  80 H     1.0000    0     1.008  -11.863919    0.372202    9.250711
  81 H     1.0000    0     1.008   -7.322651    0.659549   10.092999
  82 H     1.0000    0     1.008   -4.197085   -0.656114    6.910666
  83 H     1.0000    0     1.008   -3.441925   -6.685724    0.732282
  84 H     1.0000    0     1.008    1.114089   -7.328558    0.310016
  85 H     1.0000    0     1.008    2.205384    0.142939   -3.144082
  86 H     1.0000    0     1.008   -2.319538   -0.667619   -3.614012
  87 H     1.0000    0     1.008   -5.603505    4.357566    2.740253
  88 H     1.0000    0     1.008   -9.361049    5.250567    5.312900
  89 H     1.0000    0     1.008  -13.620175    4.478064    3.679241
  90 H     1.0000    0     1.008  -14.240977    2.671426   -0.591754
  91 H     1.0000    0     1.008  -13.633242    0.746779   -5.334323
  92 H     1.0000    0     1.008  -11.954322   -0.792069   -9.419008
  93 H     1.0000    0     1.008   -7.403988   -0.735560  -10.266243
  94 H     1.0000    0     1.008   -4.384712    0.786561   -7.082004
  95 H     1.0000    0     1.008   -3.954905    6.669389   -0.606952
  96 H     1.0000    0     1.008    0.530801    7.494006   -0.082714



           ************************************************************
           *        Program running with 40 parallel MPI-processes    *
           *              working on a common directory               *
           ************************************************************
------------------------------------------------------------------------------
                   ___                                                        
                  /   \      - P O W E R E D   B Y -                         
                 /     \                                                     
                 |  |  |   _    _      __       _____    __    __             
                 |  |  |  | |  | |    /  \     |  _  \  |  |  /  |          
                  \  \/   | |  | |   /    \    | | | |  |  | /  /          
                 / \  \   | |__| |  /  /\  \   | |_| |  |  |/  /          
                |  |  |   |  __  | /  /__\  \  |    /   |      \           
                |  |  |   | |  | | |   __   |  |    \   |  |\   \          
                \     /   | |  | | |  |  |  |  | |\  \  |  | \   \       
                 \___/    |_|  |_| |__|  |__|  |_| \__\ |__|  \__/        
                                                                              
                      - O R C A' S   B I G   F R I E N D -                    
                                      &                                       
                       - I N T E G R A L  F E E D E R -                       
                                                                              
 v1 FN, 2020, v2 2021                                                         
------------------------------------------------------------------------------


Reading SHARK input file /dev/shm/slurm.malcolms.9850266/9850266/T1/T1_OPT.SHARKINP.tmp ... ok
----------------------
SHARK INTEGRAL PACKAGE
----------------------

Number of atoms                             ...     97
Number of basis functions                   ...   1025
Number of shells                            ...    471
Maximum angular momentum                    ...      2
Integral batch strategy                     ... SHARK/LIBINT Hybrid
RI-J (if used) integral strategy            ... SPLIT-RIJ (Revised 2003 algorithm where possible)
Printlevel                                  ...      1
Contraction scheme used                     ... SEGMENTED contraction
Coulomb Range Separation                    ... NOT USED
Exchange Range Separation                   ... NOT USED
Finite Nucleus Model                        ... NOT USED
Auxiliary Coulomb fitting basis             ... AVAILABLE
   # of basis functions in Aux-J            ...   3347
   # of shells in Aux-J                     ...   1085
   Maximum angular momentum in Aux-J        ...      4
Auxiliary J/K fitting basis                 ... NOT available
Auxiliary Correlation fitting basis         ... NOT available
Auxiliary 'external' fitting basis          ... NOT available
Integral threshold                          ...     2.500000e-11
Primitive cut-off                           ...     2.500000e-12
Primitive pair pre-selection threshold      ...     2.500000e-12

Calculating pre-screening integrals         ... done (  0.0 sec) Dimension = 471
Organizing shell pair data                  ... done (  0.4 sec)
Shell pair information
Total number of shell pairs                 ...    111156
Shell pairs after pre-screening             ...     53760
Total number of primitive shell pairs       ...    410856
Primitive shell pairs kept                  ...    115760
          la=0 lb=0:  16229 shell pairs
          la=1 lb=0:  20183 shell pairs
          la=1 lb=1:   6441 shell pairs
          la=2 lb=0:   6320 shell pairs
          la=2 lb=1:   4017 shell pairs
          la=2 lb=2:    570 shell pairs

Calculating one electron integrals          ... done (  0.1 sec)
Calculating RI/J V-Matrix + Cholesky decomp.... done (  0.6 sec)
Calculating Nuclear repulsion               ... done (  0.0 sec) ENN=   7966.252867442054 Eh

SHARK setup successfully completed in   1.5 seconds

Maximum memory used throughout the entire GTOINT-calculation: 84.1 MB


           ************************************************************
           *        Program running with 40 parallel MPI-processes    *
           *              working on a common directory               *
           ************************************************************

Diagonalization of the overlap matrix:
Smallest eigenvalue                        ... 1.670e-04
Time for diagonalization                   ...    0.180 sec
Threshold for overlap eigenvalues          ... 1.000e-08
Number of eigenvalues below threshold      ... 0
Time for construction of square roots      ...    0.102 sec
Total time needed                          ...    0.290 sec

Time for model grid setup =    0.640 sec

Loading Hartree-Fock densities                     ... done
Calculating cut-offs                               ... done
Initializing the effective Hamiltonian             ... done
Setting up the integral package (SHARK)            ... done
Starting the Coulomb interaction                   ... done (   0.4 sec)
Reading the grid                                   ... done
Mapping shells                                     ... done
Starting the XC term evaluation                    ... done (   0.1 sec)
  promolecular density results
     # of electrons  =    401.965458164
     EX              =   -325.306443495
     EC              =    -13.599299924
     EX+EC           =   -338.905743418
Transforming the Hamiltonian                       ... done (   0.1 sec)
Diagonalizing the Hamiltonian                      ... done (   0.2 sec)
Back transforming the eigenvectors                 ... done (   0.0 sec)
Now organizing SCF variables                       ... done
-------------------
DFT GRID GENERATION
-------------------

General Integration Accuracy     IntAcc      ... 4.959
Radial Grid Type                 RadialGrid  ... OptM3 with GC (2021)
Angular Grid (max. ang.)         AngularGrid ... 6 (Lebedev-590)
Angular grid pruning method      GridPruning ... 4 (adaptive)
Weight generation scheme         WeightScheme... Becke
Basis function cutoff            BFCut       ... 1.0000e-11
Integration weight cutoff        WCut        ... 1.0000e-14
Angular grids for H and He will be reduced by one unit
Partially contracted basis set               ... off
Rotationally invariant grid construction     ... off

Total number of grid points                  ...  1147125
Total number of batches                      ...    17974
Average number of points per batch           ...       63
Average number of grid points per atom       ...    11826
Time for grid setup =   12.900 sec

--------------------
COSX GRID GENERATION
--------------------

GRIDX 1
-------
General Integration Accuracy     IntAcc      ... 4.020
Radial Grid Type                 RadialGrid  ... OptM3 with GC (2021)
Angular Grid (max. ang.)         AngularGrid ... 2 (Lebedev-110)
Angular grid pruning method      GridPruning ... 4 (adaptive)
Weight generation scheme         WeightScheme... Becke
Basis function cutoff            BFCut       ... 1.0000e-11
Integration weight cutoff        WCut        ... 1.0000e-14
Angular grids for H and He will be reduced by one unit
Partially contracted basis set               ... on
Rotationally invariant grid construction     ... off

Total number of grid points                  ...   128833
Total number of batches                      ...     2061
Average number of points per batch           ...       62
Average number of grid points per atom       ...     1328
UseSFitting                                  ... on

GRIDX 2
-------
General Integration Accuracy     IntAcc      ... 4.338
Radial Grid Type                 RadialGrid  ... OptM3 with GC (2021)
Angular Grid (max. ang.)         AngularGrid ... 3 (Lebedev-194)
Angular grid pruning method      GridPruning ... 4 (adaptive)
Weight generation scheme         WeightScheme... Becke
Basis function cutoff            BFCut       ... 1.0000e-11
Integration weight cutoff        WCut        ... 1.0000e-14
Angular grids for H and He will be reduced by one unit
Partially contracted basis set               ... on
Rotationally invariant grid construction     ... off

Total number of grid points                  ...   280575
Total number of batches                      ...     4432
Average number of points per batch           ...       63
Average number of grid points per atom       ...     2893
UseSFitting                                  ... on

GRIDX 3
-------
General Integration Accuracy     IntAcc      ... 4.871
Radial Grid Type                 RadialGrid  ... OptM3 with GC (2021)
Angular Grid (max. ang.)         AngularGrid ... 4 (Lebedev-302)
Angular grid pruning method      GridPruning ... 4 (adaptive)
Weight generation scheme         WeightScheme... Becke
Basis function cutoff            BFCut       ... 1.0000e-11
Integration weight cutoff        WCut        ... 1.0000e-14
Angular grids for H and He will be reduced by one unit
Partially contracted basis set               ... on
Rotationally invariant grid construction     ... off

Total number of grid points                  ...   515325
Total number of batches                      ...     8102
Average number of points per batch           ...       63
Average number of grid points per atom       ...     5313
UseSFitting                                  ... on

Time for X-Grid setup             =    6.535 sec

--------------
SCF ITERATIONS
--------------
ITER       Energy         Delta-E        Max-DP      RMS-DP      [F,P]     Damp
               ***  Starting incremental Fock matrix formation  ***
  0  -2386.4817164927   0.000000000000 0.08340590  0.00110790  0.1631841 0.7000
  1  -2386.8986117666  -0.416895273921 0.05661363  0.00079207  0.0799591 0.7000
                               ***Turning on DIIS***
  2  -2387.0917603597  -0.193148593098 0.11529021  0.00149534  0.0337166 0.0000
  3  -2387.3858416121  -0.294081252398 0.02899058  0.00047918  0.0355951 0.0000
  4  -2387.4446146739  -0.058773061754 0.01031279  0.00013797  0.0113101 0.0000
  5  -2387.4479525137  -0.003337839870 0.00367354  0.00004897  0.0038277 0.0000
                      *** Initiating the SOSCF procedure ***
                           *** Shutting down DIIS ***
                      *** Re-Reading the Fockian *** 
                      *** Removing any level shift *** 
ITER      Energy       Delta-E        Grad      Rot      Max-DP    RMS-DP
  6  -2387.44827342  -0.0003209053  0.000290  0.000290  0.001366  0.000024
               *** Restarting incremental Fock matrix formation ***
  7  -2387.44827434  -0.0000009164  0.000141  0.000595  0.001137  0.000015
  8  -2387.44826512   0.0000092170  0.000299  0.000449  0.000740  0.000008
  9  -2387.44828003  -0.0000149152  0.000065  0.000212  0.000296  0.000003
 10  -2387.44827917   0.0000008639  0.000107  0.000130  0.000189  0.000002
 11  -2387.44828034  -0.0000011673  0.000020  0.000075  0.000089  0.000001
 12  -2387.44828033   0.0000000083  0.000038  0.000055  0.000061  0.000001
                  ***Gradient check signals convergence***
              ***Rediagonalizing the Fockian in SOSCF/NRSCF***

               *****************************************************
               *                     SUCCESS                       *
               *           SCF CONVERGED AFTER  13 CYCLES          *
               *****************************************************

Old exchange energy                            =    -82.824012158 Eh
New exchange energy                            =    -82.823987935 Eh
Exchange energy change after final integration =      0.000024224 Eh
Total energy after final integration           =  -2387.448256167 Eh
Final COS-X integration done in                =    26.558 sec
Total Energy       :        -2387.44825617 Eh          -64965.76985 eV
  Last Energy change         ...   -6.2098e-08  Tolerance :   1.0000e-08
  Last MAX-Density change    ...    4.4409e-15  Tolerance :   1.0000e-07
             **** THE GBW FILE WAS UPDATED (/dev/shm/slurm.malcolms.9850266/9850266/T1/T1_OPT.gbw) ****
             **** DENSITY /dev/shm/slurm.malcolms.9850266/9850266/T1/T1_OPT.scfp WAS UPDATED ****
             **** ENERGY FILE WAS UPDATED (/dev/shm/slurm.malcolms.9850266/9850266/T1/T1_OPT.en.tmp) ****
             **** THE GBW FILE WAS UPDATED (/dev/shm/slurm.malcolms.9850266/9850266/T1/T1_OPT.gbw) ****
             **** DENSITY /dev/shm/slurm.malcolms.9850266/9850266/T1/T1_OPT.scfp WAS UPDATED ****
----------------
ORBITAL ENERGIES
----------------

  NO   OCC          E(Eh)            E(eV) 
   0   2.0000     -14.447132      -393.1264 
   1   2.0000     -14.442340      -392.9960 
   2   2.0000     -14.379487      -391.2857 
   3   2.0000     -14.377724      -391.2378 
   4   2.0000     -14.377249      -391.2248 
   5   2.0000     -10.289617      -279.9947 
   6   2.0000     -10.283350      -279.8242 
   7   2.0000     -10.274582      -279.5856 
   8   2.0000     -10.274562      -279.5850 
   9   2.0000     -10.274203      -279.5753 
  10   2.0000     -10.273664      -279.5606 
  11   2.0000     -10.273191      -279.5477 
  12   2.0000     -10.271668      -279.5063 
  13   2.0000     -10.269389      -279.4443 
  14   2.0000     -10.268088      -279.4089 
  15   2.0000     -10.266940      -279.3776 
  16   2.0000     -10.265887      -279.3490 
  17   2.0000     -10.256711      -279.0993 
  18   2.0000     -10.254817      -279.0477 
  19   2.0000     -10.252708      -278.9904 
  20   2.0000     -10.248898      -278.8867 
  21   2.0000     -10.247950      -278.8609 
  22   2.0000     -10.247005      -278.8352 
  23   2.0000     -10.246701      -278.8269 
  24   2.0000     -10.245325      -278.7895 
  25   2.0000     -10.245309      -278.7890 
  26   2.0000     -10.244713      -278.7728 
  27   2.0000     -10.244464      -278.7660 
  28   2.0000     -10.244012      -278.7537 
  29   2.0000     -10.243724      -278.7459 
  30   2.0000     -10.243168      -278.7308 
  31   2.0000     -10.242731      -278.7189 
  32   2.0000     -10.242714      -278.7184 
  33   2.0000     -10.242104      -278.7018 
  34   2.0000     -10.241569      -278.6873 
  35   2.0000     -10.240992      -278.6716 
  36   2.0000     -10.239891      -278.6416 
  37   2.0000     -10.237828      -278.5855 
  38   2.0000     -10.236053      -278.5372 
  39   2.0000     -10.232608      -278.4434 
  40   2.0000     -10.231526      -278.4140 
  41   2.0000     -10.231491      -278.4130 
  42   2.0000     -10.231429      -278.4113 
  43   2.0000     -10.230427      -278.3841 
  44   2.0000     -10.230393      -278.3831 
  45   2.0000     -10.230064      -278.3742 
  46   2.0000     -10.230010      -278.3727 
  47   2.0000     -10.229808      -278.3672 
  48   2.0000     -10.229754      -278.3657 
  49   2.0000     -10.229458      -278.3577 
  50   2.0000     -10.228840      -278.3409 
  51   2.0000     -10.228539      -278.3327 
  52   2.0000     -10.227993      -278.3178 
  53   2.0000     -10.227671      -278.3091 
  54   2.0000     -10.227135      -278.2945 
  55   2.0000     -10.225996      -278.2635 
  56   2.0000     -10.224192      -278.2144 
  57   2.0000     -10.223489      -278.1953 
  58   2.0000     -10.222231      -278.1611 
  59   2.0000     -10.221682      -278.1461 
  60   2.0000      -1.026528       -27.9332 
  61   2.0000      -1.021726       -27.8026 
  62   2.0000      -0.987498       -26.8712 
  63   2.0000      -0.971445       -26.4344 
  64   2.0000      -0.956137       -26.0178 
  65   2.0000      -0.900079       -24.4924 
  66   2.0000      -0.895575       -24.3698 
  67   2.0000      -0.870934       -23.6993 
  68   2.0000      -0.869539       -23.6614 
  69   2.0000      -0.865677       -23.5563 
  70   2.0000      -0.864976       -23.5372 
  71   2.0000      -0.840773       -22.8786 
  72   2.0000      -0.832106       -22.6428 
  73   2.0000      -0.830629       -22.6026 
  74   2.0000      -0.824933       -22.4476 
  75   2.0000      -0.819445       -22.2982 
  76   2.0000      -0.815984       -22.2040 
  77   2.0000      -0.808669       -22.0050 
  78   2.0000      -0.794072       -21.6078 
  79   2.0000      -0.785801       -21.3827 
  80   2.0000      -0.782310       -21.2877 
  81   2.0000      -0.777745       -21.1635 
  82   2.0000      -0.771329       -20.9889 
  83   2.0000      -0.766352       -20.8535 
  84   2.0000      -0.764186       -20.7945 
  85   2.0000      -0.757268       -20.6063 
  86   2.0000      -0.748505       -20.3679 
  87   2.0000      -0.732577       -19.9344 
  88   2.0000      -0.730062       -19.8660 
  89   2.0000      -0.727363       -19.7926 
  90   2.0000      -0.720261       -19.5993 
  91   2.0000      -0.688210       -18.7271 
  92   2.0000      -0.680395       -18.5145 
  93   2.0000      -0.677779       -18.4433 
  94   2.0000      -0.670711       -18.2510 
  95   2.0000      -0.651060       -17.7162 
  96   2.0000      -0.649854       -17.6834 
  97   2.0000      -0.645159       -17.5557 
  98   2.0000      -0.642739       -17.4898 
  99   2.0000      -0.631540       -17.1851 
 100   2.0000      -0.629665       -17.1341 
 101   2.0000      -0.623171       -16.9574 
 102   2.0000      -0.617848       -16.8125 
 103   2.0000      -0.616352       -16.7718 
 104   2.0000      -0.612103       -16.6562 
 105   2.0000      -0.599000       -16.2996 
 106   2.0000      -0.594832       -16.1862 
 107   2.0000      -0.588139       -16.0041 
 108   2.0000      -0.586576       -15.9615 
 109   2.0000      -0.581486       -15.8230 
 110   2.0000      -0.576616       -15.6905 
 111   2.0000      -0.558230       -15.1902 
 112   2.0000      -0.555840       -15.1252 
 113   2.0000      -0.554696       -15.0940 
 114   2.0000      -0.536935       -14.6108 
 115   2.0000      -0.534069       -14.5327 
 116   2.0000      -0.531618       -14.4661 
 117   2.0000      -0.527363       -14.3503 
[...]
   354. D(C  18,C  17,C  16,C  15)    169.29  0.000202    0.35    169.63   
   355. D(H  72,C  18,C  17,H  71)    176.13  0.000364    0.10    176.24   
   356. D(H  72,C  18,C  17,C  16)     -1.56  0.000318   -0.23     -1.79   
   357. D(C  19,C  18,C  17,H  71)     -3.00 -0.000101   -0.41     -3.41   
   358. D(C  19,C  18,C  17,C  16)    179.31 -0.000147   -0.75    178.56   
   359. D(C  37,C  19,C  18,H  72)    158.87 -0.001016   -0.59    158.29   
   360. D(C  20,C  19,C  18,H  72)    -20.31 -0.000465   -0.77    -21.08   
   361. D(C  20,C  19,C  18,C  17)    158.82  0.000031   -0.27    158.55   
   362. D(C  37,C  19,C  18,C  17)    -21.99 -0.000520   -0.09    -22.08   
   363. D(H  73,C  20,C  19,C  37)   -179.88 -0.000702    0.48   -179.40   
   364. D(H  73,C  20,C  19,C  18)     -0.66 -0.001207    0.65     -0.01   
   365. D(C  21,C  20,C  19,C  37)     -0.32 -0.000888    0.12     -0.20   
   366. D(C  21,C  20,C  19,C  18)    178.90 -0.001393    0.30    179.20   
   367. D(H  74,C  21,C  20,H  73)      0.50 -0.000245   -0.39      0.11   
   368. D(H  74,C  21,C  20,C  19)   -179.06 -0.000054   -0.04   -179.09   
   369. D(C  22,C  21,C  20,H  73)    178.58 -0.000598   -0.34    178.25   
   370. D(C  22,C  21,C  20,C  19)     -0.98 -0.000408    0.02     -0.95   
   371. D(C  36,C  22,C  21,H  74)   -179.84  0.000949    0.04   -179.80   
   372. D(C  36,C  22,C  21,C  20)      2.09  0.001386   -0.02      2.07   
   373. D(N  23,C  22,C  21,H  74)      1.37  0.002720    0.16      1.53   
   374. D(N  23,C  22,C  21,C  20)   -176.70  0.003157    0.10   -176.60   
   375. D(C  35,N  23,C  22,C  36)    128.38  0.003449   -1.32    127.07   
   376. D(C  35,N  23,C  22,C  21)    -52.83  0.001633   -1.49    -54.33   
   377. D(C  24,N  23,C  22,C  36)    -44.34  0.002806   -1.39    -45.73   
   378. D(C  24,N  23,C  22,C  21)    134.44  0.000991   -1.56    132.88   
   379. D(C  29,C  24,N  23,C  35)     -0.53  0.000878   -0.61     -1.14   
   380. D(C  29,C  24,N  23,C  22)    173.48  0.002460   -0.66    172.82   
   381. D(C  25,C  24,N  23,C  35)    176.83  0.000977   -0.89    175.95   
   382. D(C  25,C  24,N  23,C  22)     -9.16  0.002559   -0.93    -10.10   
   383. D(H  75,C  25,C  24,C  29)    177.62  0.001340   -1.06    176.56   
   384. D(H  75,C  25,C  24,N  23)      0.52  0.001128   -0.75     -0.22   
   385. D(C  26,C  25,C  24,C  29)     -1.72  0.000577   -0.15     -1.87   
   386. D(C  26,C  25,C  24,N  23)   -178.82  0.000364    0.17   -178.65   
   387. D(H  76,C  26,C  25,H  75)      0.01 -0.000467    0.12      0.13   
   388. D(H  76,C  26,C  25,C  24)    179.34  0.000282   -0.78    178.56   
   389. D(C  27,C  26,C  25,H  75)   -179.14 -0.001076    1.04   -178.10   
   390. D(C  27,C  26,C  25,C  24)      0.19 -0.000327    0.14      0.32   
   391. D(H  77,C  27,C  26,H  76)      0.45  0.000020   -0.47     -0.02   
   392. D(H  77,C  27,C  26,C  25)    179.60  0.000633   -1.39    178.21   
   393. D(C  28,C  27,C  26,H  76)   -178.14 -0.000671    0.74   -177.39   
   394. D(C  28,C  27,C  26,C  25)      1.01 -0.000058   -0.18      0.84   
   395. D(H  78,C  28,C  27,H  77)     -0.16 -0.000345    0.68      0.53   
   396. D(H  78,C  28,C  27,C  26)    178.40  0.000314   -0.53    177.87   
   397. D(C  29,C  28,C  27,H  77)   -179.23 -0.000483    1.43   -177.80   
   398. D(C  29,C  28,C  27,C  26)     -0.67  0.000176    0.21     -0.46   
   399. D(C  30,C  29,C  28,H  78)     -0.92  0.000147   -0.56     -1.48   
   400. D(C  30,C  29,C  28,C  27)    178.15  0.000287   -1.29    176.86   
   401. D(C  24,C  29,C  28,H  78)   -179.91 -0.000045    0.52   -179.39   
   402. D(C  24,C  29,C  28,C  27)     -0.84  0.000094   -0.22     -1.05   
   403. D(C  30,C  29,C  24,C  25)   -177.18 -0.000685    1.01   -176.16   
   404. D(C  30,C  29,C  24,N  23)      0.43 -0.000715    0.78      1.21   
   405. D(C  28,C  29,C  24,C  25)      2.07 -0.000507    0.19      2.26   
   406. D(C  28,C  29,C  24,N  23)    179.67 -0.000537   -0.04    179.63   
   407. D(C  35,C  30,C  29,C  28)   -179.25  0.000118    0.32   -178.93   
   408. D(C  35,C  30,C  29,C  24)     -0.17  0.000301   -0.65     -0.81   
   409. D(C  31,C  30,C  29,C  28)      0.88  0.000242   -0.38      0.50   
   410. D(C  31,C  30,C  29,C  24)    179.97  0.000425   -1.35    178.62   
   411. D(C  32,C  31,C  30,C  35)     -0.39  0.000226   -0.58     -0.98   
   412. D(C  32,C  31,C  30,C  29)    179.45  0.000088    0.20    179.65   
   413. D(H  79,C  31,C  30,C  29)     -0.89  0.000440   -0.52     -1.41   
   414. D(H  79,C  31,C  30,C  35)    179.27  0.000578   -1.31    177.96   
   415. D(H  80,C  32,C  31,H  79)      0.09 -0.000325    0.69      0.79   
   416. D(H  80,C  32,C  31,C  30)    179.75  0.000024   -0.04    179.71   
   417. D(C  33,C  32,C  31,H  79)    179.66 -0.000525    1.02    180.69   
   418. D(C  33,C  32,C  31,C  30)     -0.68 -0.000176    0.29     -0.39   
   419. D(H  81,C  33,C  32,H  80)      0.51 -0.000114    0.18      0.69   
   420. D(H  81,C  33,C  32,C  31)   -179.06  0.000085   -0.15   -179.20   
   421. D(C  34,C  33,C  32,H  80)   -179.79 -0.000134    0.41   -179.38   
   422. D(C  34,C  33,C  32,C  31)      0.64  0.000065    0.09      0.72   
   423. D(H  82,C  34,C  33,H  81)      0.77  0.000064   -0.27      0.50   
   424. D(H  82,C  34,C  33,C  32)   -178.93  0.000084   -0.50   -179.42   
   425. D(C  35,C  34,C  33,H  81)   -179.79 -0.000004    0.06   -179.73   
   426. D(C  35,C  34,C  33,C  32)      0.51  0.000016   -0.17      0.34   
   427. D(C  30,C  35,C  34,H  82)    177.84  0.000011    0.20    178.04   
   428. D(N  23,C  35,C  34,H  82)      0.11 -0.000268   -0.28     -0.17   
   429. D(N  23,C  35,C  34,C  33)   -179.33 -0.000198   -0.61   -179.94   
   430. D(C  34,C  35,C  30,C  31)      1.57 -0.000177    0.51      2.08   
   431. D(C  34,C  35,C  30,C  29)   -178.31 -0.000065   -0.09   -178.40   
   432. D(N  23,C  35,C  30,C  31)    179.73  0.000127    0.90    180.63   
   433. D(N  23,C  35,C  30,C  29)     -0.15  0.000238    0.30      0.15   
   434. D(C  34,C  35,N  23,C  24)    178.36 -0.000467    0.63    178.99   
   435. D(C  34,C  35,N  23,C  22)      4.76 -0.000454    0.54      5.30   
   436. D(C  30,C  35,C  34,C  33)     -1.60  0.000080   -0.13     -1.73   
   437. D(C  30,C  35,N  23,C  24)      0.41 -0.000705    0.18      0.60   
   438. D(C  30,C  35,N  23,C  22)   -173.18 -0.000692    0.09   -173.09   
   439. D(H  83,C  36,C  22,N  23)     -2.99 -0.001560   -0.24     -3.23   
   440. D(H  83,C  36,C  22,C  21)    178.19  0.000165   -0.03    178.16   
   441. D(C  37,C  36,C  22,N  23)    176.88 -0.002776   -0.34    176.55   
   442. D(C  37,C  36,C  22,C  21)     -1.94 -0.001051   -0.12     -2.06   
   443. D(H  84,C  37,C  36,H  83)      1.68 -0.000297   -0.03      1.64   
   444. D(H  84,C  37,C  36,C  22)   -178.19  0.000932    0.06   -178.13   
   445. D(C  19,C  37,C  36,H  83)   -179.47 -0.001404    0.20   -179.28   
   446. D(C  19,C  37,C  36,C  22)      0.66 -0.000174    0.29      0.95   
   447. D(H  84,C  37,C  19,C  20)    179.33  0.000066   -0.05    179.27   
   448. D(H  84,C  37,C  19,C  18)      0.12  0.000627   -0.23     -0.11   
   449. D(C  36,C  37,C  19,C  20)      0.48  0.001180   -0.28      0.20   
   450. D(C  36,C  37,C  19,C  18)   -178.72  0.001741   -0.45   -179.18   
   451. D(C  12,N  38,C  16,C  17)    178.90  0.000372    0.04    178.95   
   452. D(C  12,N  38,C  16,C  15)     -0.77  0.000176   -0.04     -0.80   
   453. D(C  16,N  38,C  12,C  13)     -0.61 -0.000107    0.27     -0.35   
   454. D(C  16,N  38,C  12,C  11)    179.38 -0.000270    0.03    179.41   
   455. D(C   7,N  39,C  11,C  12)   -179.38  0.000221   -0.38   -179.76   
   456. D(C   7,N  39,C  11,C  10)     -0.37  0.000172   -0.05     -0.42   
   457. D(C  11,N  39,C   7,C   8)     -0.57  0.000029    0.02     -0.55   
   458. D(C  11,N  39,C   7,C   6)    178.54  0.000106    0.38    178.92   
   459. D(C   2,N  40,C   6,C   7)    179.14  0.000060   -0.22    178.93   
   460. D(C   2,N  40,C   6,C   5)     -0.07  0.000180   -0.35     -0.43   
   461. D(C   6,N  40,C   2,C   3)     -0.42  0.000008    0.16     -0.26   
   462. D(C   6,N  40,C   2,C   1)    179.53  0.000194    0.19    179.73   
   463. D(C  59,C  41,C   0,H  60)    178.26 -0.001205    0.11    178.37   
   464. D(C  59,C  41,C   0,C   1)     -1.55  0.000024   -0.55     -2.10   
   465. D(C  42,C  41,C   0,H  60)     -1.31 -0.000719   -0.04     -1.35   
   466. D(C  42,C  41,C   0,C   1)    178.88  0.000510   -0.70    178.18   
   467. D(H  85,C  42,C  41,C  59)    178.74 -0.000781    0.32    179.05   
   468. D(H  85,C  42,C  41,C   0)     -1.67 -0.001220    0.46     -1.21   
   469. D(C  43,C  42,C  41,C  59)     -2.59 -0.001135    0.20     -2.39   
   470. D(C  43,C  42,C  41,C   0)    177.01 -0.001574    0.34    177.35   
   471. D(H  86,C  43,C  42,H  85)      0.46 -0.000475   -0.37      0.09   
   472. D(H  86,C  43,C  42,C  41)   -178.19 -0.000107   -0.25   -178.45   
   473. D(C  44,C  43,C  42,H  85)    177.86 -0.000729   -0.12    177.74   
   474. D(C  44,C  43,C  42,C  41)     -0.80 -0.000360   -0.00     -0.80   
   475. D(C  58,C  44,C  43,H  86)   -179.06  0.001257    0.16   -178.91   
   476. D(C  58,C  44,C  43,C  42)      3.54  0.001609   -0.10      3.44   
   477. D(N  45,C  44,C  43,H  86)      1.51  0.003031    0.34      1.86   
   478. D(N  45,C  44,C  43,C  42)   -175.88  0.003383    0.09   -175.79   
   479. D(C  57,N  45,C  44,C  58)    134.67  0.004136   -1.18    133.48   
   480. D(C  57,N  45,C  44,C  43)    -45.92  0.002337   -1.43    -47.35   
   481. D(C  46,N  45,C  44,C  58)    -40.93  0.003571   -1.39    -42.32   
   482. D(C  46,N  45,C  44,C  43)    138.49  0.001772   -1.64    136.85   
   483. D(C  51,C  46,N  45,C  57)     -0.99  0.000543   -0.38     -1.37   
   484. D(C  51,C  46,N  45,C  44)    175.38  0.001616   -0.26    175.12   
   485. D(C  47,C  46,N  45,C  57)    175.99  0.001045   -0.95    175.04   
   486. D(C  47,C  46,N  45,C  44)     -7.64  0.002119   -0.83     -8.47   
   487. D(H  87,C  47,C  46,C  51)    176.46  0.001163   -1.10    175.36   
   488. D(H  87,C  47,C  46,N  45)     -0.21  0.000490   -0.46     -0.67   
   489. D(C  48,C  47,C  46,C  51)     -2.51  0.000331   -0.14     -2.65   
   490. D(C  48,C  47,C  46,N  45)   -179.19 -0.000343    0.50   -178.68   
   491. D(H  88,C  48,C  47,H  87)      0.48 -0.000340    0.11      0.59   
   492. D(H  88,C  48,C  47,C  46)    179.45  0.000471   -0.83    178.61   
   493. D(C  49,C  48,C  47,H  87)   -178.36 -0.001047    1.11   -177.25   
   494. D(C  49,C  48,C  47,C  46)      0.61 -0.000236    0.16      0.77   
   495. D(H  89,C  49,C  48,H  88)      0.71  0.000069   -0.37      0.33   
   496. D(H  89,C  49,C  48,C  47)    179.54  0.000782   -1.37    178.17   
   497. D(C  50,C  49,C  48,H  88)   -177.63 -0.000583    0.77   -176.86   
   498. D(C  50,C  49,C  48,C  47)      1.21  0.000131   -0.23      0.98   
   499. D(H  90,C  50,C  49,H  89)     -0.36 -0.000398    0.66      0.30   
   500. D(H  90,C  50,C  49,C  48)    177.96  0.000218   -0.49    177.47   
   501. D(C  51,C  50,C  49,H  89)   -179.41 -0.000714    1.39   -178.02   
   502. D(C  51,C  50,C  49,C  48)     -1.10 -0.000097    0.24     -0.86   
   503. D(C  52,C  51,C  50,H  90)     -1.27  0.000130   -0.61     -1.88   
   504. D(C  52,C  51,C  50,C  49)    177.79  0.000445   -1.33    176.45   
   505. D(C  46,C  51,C  50,H  90)   -179.84 -0.000119    0.52   -179.32   
   506. D(C  46,C  51,C  50,C  49)     -0.78  0.000197   -0.20     -0.99   
   507. D(C  52,C  51,C  46,C  47)   -176.29 -0.000590    1.03   -175.26   
   508. D(C  52,C  51,C  46,N  45)      0.98 -0.000222    0.52      1.50   
   509. D(C  50,C  51,C  46,C  47)      2.63 -0.000362    0.16      2.80   
   510. D(C  50,C  51,C  46,N  45)    179.90  0.000006   -0.34    179.56   
   511. D(C  57,C  52,C  51,C  50)   -179.31 -0.000388    0.55   -178.75   
   512. D(C  57,C  52,C  51,C  46)     -0.60 -0.000148   -0.47     -1.06   
   513. D(C  53,C  52,C  51,C  50)      1.09 -0.000154   -0.24      0.84   
   514. D(C  53,C  52,C  51,C  46)    179.80  0.000086   -1.26    178.53   
   515. D(H  91,C  53,C  52,C  57)    179.16  0.000483   -1.37    177.79   
   516. D(H  91,C  53,C  52,C  51)     -1.28  0.000220   -0.48     -1.76   
   517. D(C  54,C  53,C  52,C  57)     -0.55  0.000223   -0.62     -1.17   
   518. D(C  54,C  53,C  52,C  51)    179.02 -0.000040    0.26    179.28   
   519. D(H  92,C  54,C  53,H  91)     -0.06 -0.000267    0.75      0.69   
   520. D(H  92,C  54,C  53,C  52)    179.64 -0.000011   -0.00    179.64   
   521. D(C  55,C  54,C  53,H  91)    179.31 -0.000434    1.09    180.40   
   522. D(C  55,C  54,C  53,C  52)     -0.98 -0.000178    0.34     -0.64   
   523. D(H  93,C  55,C  54,H  92)      0.68 -0.000094    0.16      0.84   
   524. D(H  93,C  55,C  54,C  53)   -178.70  0.000072   -0.18   -178.88   
   525. D(C  56,C  55,C  54,H  92)   -179.73 -0.000080    0.40   -179.33   
   526. D(C  56,C  55,C  54,C  53)      0.89  0.000087    0.06      0.95   
   527. D(H  94,C  56,C  55,H  93)      1.05  0.000021   -0.25      0.80   
   528. D(H  94,C  56,C  55,C  54)   -178.54  0.000008   -0.49   -179.03   
   529. D(C  57,C  56,C  55,H  93)   -179.64 -0.000000    0.07   -179.58   
   530. D(C  57,C  56,C  55,C  54)      0.77 -0.000013   -0.18      0.59   
   531. D(N  45,C  57,C  56,H  94)      0.17 -0.000366   -0.31     -0.15   
   532. D(N  45,C  57,C  56,C  55)   -179.13 -0.000345   -0.63   -179.77   
   533. D(C  56,C  57,C  52,C  53)      2.25 -0.000186    0.52      2.77   
   534. D(C  56,C  57,C  52,C  51)   -177.41  0.000032   -0.16   -177.57   
   535. D(N  45,C  57,C  52,C  53)    179.68  0.000291    0.93    180.61   
   536. D(N  45,C  57,C  52,C  51)      0.01  0.000509    0.26      0.27   
   537. D(C  56,C  57,N  45,C  46)    177.71 -0.000279    0.55    178.26   
   538. D(C  56,C  57,N  45,C  44)      1.57 -0.000419    0.36      1.93   
   539. D(C  52,C  57,N  45,C  46)      0.59 -0.000683    0.07      0.66   
   540. D(C  52,C  57,C  56,C  55)     -2.31  0.000120   -0.12     -2.43   
   541. D(C  52,C  57,N  45,C  44)   -175.55 -0.000823   -0.11   -175.66   
   542. D(C  52,C  57,C  56,H  94)    176.99  0.000099    0.20    177.19   
   543. D(H  95,C  58,C  44,N  45)     -5.13 -0.001600   -0.24     -5.37   
   544. D(H  95,C  58,C  44,C  43)    175.43  0.000112    0.04    175.47   
   545. D(C  59,C  58,C  44,N  45)    176.62 -0.003009   -0.28    176.34   
   546. D(C  59,C  58,C  44,C  43)     -2.82 -0.001297   -0.00     -2.82   
   547. D(H  96,C  59,C  58,H  95)      0.67 -0.000326   -0.10      0.57   
   548. D(H  96,C  59,C  58,C  44)    178.90  0.001083   -0.06    178.84   
   549. D(C  41,C  59,C  58,H  95)   -178.90 -0.001529    0.18   -178.72   
   550. D(C  41,C  59,C  58,C  44)     -0.67 -0.000120    0.22     -0.45   
   551. D(H  96,C  59,C  41,C  42)   -176.24  0.000177   -0.03   -176.28   
   552. D(H  96,C  59,C  41,C   0)      4.17  0.000653   -0.18      3.99   
   553. D(C  58,C  59,C  41,C  42)      3.32  0.001391   -0.31      3.01   
   554. D(C  58,C  59,C  41,C   0)   -176.26  0.001867   -0.46   -176.72   
    ----------------------------------------------------------------------------




    ----------------------------------------------------------------------------
                                  WARNING !!!
       The optimization did not converge but reached the maximum number of
       optimization cycles.
       Please check your results very carefully.
    ----------------------------------------------------------------------------



                            ***************************************
                            *     ORCA property calculations      *
                            ***************************************

                                    ---------------------
                                    Active property flags
                                    ---------------------
   (+) Dipole Moment


------------------------------------------------------------------------------
                       ORCA ELECTRIC PROPERTIES CALCULATION
------------------------------------------------------------------------------

Dipole Moment Calculation                       ... on
Quadrupole Moment Calculation                   ... off
Polarizability Calculation                      ... off
GBWName                                         ... /dev/shm/slurm.malcolms.9850266/9850266/T1/T1_OPT.gbw
Electron density                                ... /dev/shm/slurm.malcolms.9850266/9850266/T1/T1_OPT.scfp
The origin for moment calculation is the CENTER OF MASS  = ( 0.002898,  0.000683 -0.001780)

-------------
DIPOLE MOMENT
-------------
                                X             Y             Z
Electronic contribution:      8.92326       0.38425      -0.29288
Nuclear contribution   :     -7.83487      -0.17390       0.32185
                        -----------------------------------------
Total Dipole Moment    :      1.08839       0.21035       0.02897
                        -----------------------------------------
Magnitude (a.u.)       :      1.10891
Magnitude (Debye)      :      2.81863



--------------------
Rotational spectrum 
--------------------
 
Rotational constants in cm-1:     0.002628     0.000783     0.000728 
Rotational constants in MHz :    78.780671    23.468262    21.811581 

 Dipole components along the rotational axes: 
x,y,z [a.u.] :     1.088748     0.193554     0.082789 
x,y,z [Debye]:     2.767377     0.491975     0.210433 

 

                        *** CIS RELAXED DENSITY ***

------------------------------------------------------------------------------
                       ORCA ELECTRIC PROPERTIES CALCULATION
------------------------------------------------------------------------------

Dipole Moment Calculation                       ... on
Quadrupole Moment Calculation                   ... off
Polarizability Calculation                      ... off
GBWName                                         ... /dev/shm/slurm.malcolms.9850266/9850266/T1/T1_OPT.gbw
Electron density                                ... /dev/shm/slurm.malcolms.9850266/9850266/T1/T1_OPT.cisp
The origin for moment calculation is the CENTER OF MASS  = ( 0.002898,  0.000683 -0.001780)

-------------
DIPOLE MOMENT
-------------
                                X             Y             Z
Electronic contribution:      8.61705       0.33884      -0.30082
Nuclear contribution   :     -7.83487      -0.17390       0.32185
                        -----------------------------------------
Total Dipole Moment    :      0.78218       0.16494       0.02102
                        -----------------------------------------
Magnitude (a.u.)       :      0.79966
Magnitude (Debye)      :      2.03257



--------------------
Rotational spectrum 
--------------------
 
Rotational constants in cm-1:     0.002628     0.000783     0.000728 
Rotational constants in MHz :    78.780671    23.468262    21.811581 

 Dipole components along the rotational axes: 
x,y,z [a.u.] :     0.782461     0.152341     0.063278 
x,y,z [Debye]:     1.988857     0.387219     0.160841 

 

Timings for individual modules:

Sum of individual times         ...     3396.334 sec (=  56.606 min)
GTO integral calculation        ...       17.578 sec (=   0.293 min)   0.5 %
SCF iterations                  ...     1313.227 sec (=  21.887 min)  38.7 %
CIS module                      ...     1029.968 sec (=  17.166 min)  30.3 %
SCF Gradient evaluation         ...     1032.497 sec (=  17.208 min)  30.4 %
Geometry relaxation             ...        3.063 sec (=   0.051 min)   0.1 %
                             ****ORCA TERMINATED NORMALLY****
TOTAL RUN TIME: 0 days 0 hours 56 minutes 49 seconds 71 msec
