97
 energy: -151.220074943488 gnorm: 0.000056089508 xtb: 6.4.1 (afa7bdf)
C         2.31145890638787    2.21061628718875   -0.58656363493176
C         2.92909635838164    3.33766551394379   -0.01411042750273
C         4.30799642238290    3.42433502016039    0.20188773887412
C         4.90485829876498    4.59627039034522    0.75760667607947
C         6.26022573643811    4.64004140122831    0.94339209803735
C         7.04246767368146    3.54016886158375    0.57970103120033
C         6.38832793110743    2.42135393697753    0.04459449134284
C         7.15963777249738    1.22232890612746   -0.34893647091241
C         8.37151190436205    1.34429213292660   -1.03242079591703
C         9.03236285232007    0.18622620389294   -1.40163166692827
C         8.48411388136615   -1.04089902780032   -1.07048336748325
C         7.27606187488356   -1.06514866975664   -0.36950499195124
C         6.62064751657484   -2.32753058115997    0.02047104801151
C         7.34490681344472   -3.50705283760675    0.21608015299796
C         6.64905393862388   -4.65793470805183    0.55191356327184
C         5.27633238101618   -4.60026099476645    0.68700300241548
C         4.63153257707844   -3.36736829446000    0.50566742581280
C         3.19673715155448   -3.25371871965231    0.66420851963199
C         2.55333422237618   -2.07515318849298    0.70059234937147
C         1.12231252561154   -1.90672299806833    0.83651396015612
C         0.59938877643744   -0.68719018938426    1.27896734033946
C        -0.76127335549776   -0.49014633432230    1.39246587250110
C        -1.64700804044195   -1.50879517019627    1.05127576263268
N        -3.03416222928902   -1.32703491734961    1.12445675741905
C        -3.94105053049109   -1.73455323398307    0.16483838331856
C        -3.71826664581812   -2.22678625372106   -1.11386858345438
C        -4.81723913575902   -2.55405742640798   -1.88312224753166
C        -6.11469476732972   -2.38446305927331   -1.40602985426460
C        -6.34480862353153   -1.86476122665588   -0.14857008646910
C        -5.25492919146664   -1.53111303815104    0.64374261049487
C        -5.12607720842296   -0.97764264543268    1.96150750243708
C        -6.04667836056756   -0.59425605257101    2.92623895516904
C        -5.57905497235479   -0.10926006931707    4.13114192971072
C        -4.21236833437757   -0.01949836441289    4.38319425617656
C        -3.27690428111259   -0.39883884207308    3.43973859685058
C        -3.74033112657911   -0.86473282953972    2.21779445424330
C        -1.13818426794766   -2.73533901033790    0.62362681957028
C         0.22022611433927   -2.92742688513224    0.51678988319387
N         5.30859902043287   -2.27148062177547    0.17601491532399
N         6.64236550718253    0.04922555624107   -0.03335501349525
N         5.09248167540170    2.37116016871275   -0.12824815270712
C         0.94460165499553    2.03717867919524   -0.78840772642185
C         0.45041189096884    0.82653303042688   -1.36626376305178
C        -0.88449916545400    0.59135125350064   -1.51860524493940
C        -1.83268466163979    1.54381789244245   -1.09942751346750
N        -3.19835711102991    1.31001351957820   -1.19969515475107
C        -4.13541340392855    1.65043875845551   -0.24084870901183
C        -3.95166976983003    2.13758577124686    1.04686128805093
C        -5.07391158248608    2.39432117325481    1.80997824355786
C        -6.35510191575075    2.15259531214378    1.32115067812383
C        -6.54486470398084    1.62505252943759    0.05819308492903
C        -5.43239531144608    1.36585316679658   -0.72740625846711
C        -5.26165252600496    0.82110676507638   -2.04539474388123
C        -6.15197094952712    0.38057217586324   -3.01167480447974
C        -5.65016640316239   -0.06721983031652   -4.21917089463418
C        -4.28121022058794   -0.05534530052854   -4.47189307881211
C        -3.37520539461566    0.38394694087599   -3.52478625921379
C        -3.86943719151977    0.80079279184444   -2.29652888786872
C        -1.37036117865528    2.76601169914294   -0.57218971335253
C        -0.03802053609368    3.01025557850181   -0.42860178126434
H         2.97662493351672    1.40966831537214   -0.87702794144139
H         2.33557159042432    4.19003973508261    0.28133106982394
H         4.27422304108437    5.43357607631020    1.01607590856753
H         6.73085891812497    5.51694981744793    1.36640991025369
H         8.10886883985874    3.53560792066049    0.73672258184384
H         8.76408363273476    2.31592902259278   -1.28946452927714
H         9.96342004384435    0.23855042785382   -1.94871455330150
H         8.97197990862693   -1.95543968447322   -1.36907389488354
H         8.41960912854676   -3.52355932419081    0.12744377933813
H         7.17759092726267   -5.58853011913215    0.70607734757239
H         4.70514346770149   -5.48074717923270    0.94080827864113
H         2.66487374686711   -4.18804089375666    0.78455964772352
H         3.15057132846514   -1.17499071144759    0.64089182696895
H         1.27774453706172    0.11402238500353    1.53217224125144
H        -1.14385969754527    0.46682329519075    1.71256340508035
H        -2.71828918617138   -2.35125925420869   -1.50111984116395
H        -4.66710222441251   -2.94265193089740   -2.87928758334190
H        -6.94732600557001   -2.65736454327818   -2.03684530551554
H        -7.34947919944541   -1.71605628371977    0.21718801035188
H        -7.10539679746036   -0.68142807179635    2.73505743756655
H        -6.27811553163480    0.19696055579818    4.89526534282885
H        -3.87498011648882    0.34901837866419    5.34098514539137
H        -2.22100194587709   -0.34720037821169    3.65696670442514
H        -1.82138837928211   -3.53793285550969    0.38750702986589
H         0.58955056358303   -3.87810588840007    0.16405363289923
H         1.16703919398686    0.07563985962855   -1.66377651571241
H        -1.22744652831993   -0.35328874728086   -1.91245284371502
H        -2.96524701945814    2.30592481809732    1.45007943762869
H        -4.95365365126027    2.77848013114372    2.81146545610778
H        -7.20748636166295    2.36968915828584    1.94697041773316
H        -7.53600056561445    1.41365780154607   -0.31314253361075
H        -7.21440120431944    0.39517827417547   -2.82280210210035
H        -6.32595452133577   -0.41914512389626   -4.98432446459015
H        -3.91802196268160   -0.38924149890023   -5.43266167844736
H        -2.32028973057792    0.41623027026760   -3.74763512649810
H        -2.09284536484275    3.52928839141528   -0.32118528603123
H         0.28088775802957    3.96565713465046   -0.04377031559097
