
                                 *****************
                                 * O   R   C   A *
                                 *****************

                                            #,                                       
                                            ###                                      
                                            ####                                     
                                            #####                                    
                                            ######                                   
                                           ########,                                 
                                     ,,################,,,,,                         
                               ,,#################################,,                 
                          ,,##########################################,,             
                       ,#########################################, ''#####,          
                    ,#############################################,,   '####,        
                  ,##################################################,,,,####,       
                ,###########''''           ''''###############################       
              ,#####''   ,,,,##########,,,,          '''####'''          '####       
            ,##' ,,,,###########################,,,                        '##       
           ' ,,###''''                  '''############,,,                           
         ,,##''                                '''############,,,,        ,,,,,,###''
      ,#''                                            '''#######################'''  
     '                                                          ''''####''''         
             ,#######,   #######,   ,#######,      ##                                
            ,#'     '#,  ##    ##  ,#'     '#,    #''#        ######   ,####,        
            ##       ##  ##   ,#'  ##            #'  '#       #        #'  '#        
            ##       ##  #######   ##           ,######,      #####,   #    #        
            '#,     ,#'  ##    ##  '#,     ,#' ,#      #,         ##   #,  ,#        
             '#######'   ##     ##  '#######'  #'      '#     #####' # '####'        



                  #######################################################
                  #                        -***-                        #
                  #          Department of theory and spectroscopy      #
                  #    Directorship and core code : Frank Neese         #
                  #        Max Planck Institute fuer Kohlenforschung    #
                  #                Kaiser Wilhelm Platz 1               #
                  #                 D-45470 Muelheim/Ruhr               #
                  #                      Germany                        #
                  #                                                     #
                  #                  All rights reserved                #
                  #                        -***-                        #
                  #######################################################


                         Program Version 5.0.3 -  RELEASE  -


 With contributions from (in alphabetic order):
   Daniel Aravena         : Magnetic Suceptibility
   Michael Atanasov       : Ab Initio Ligand Field Theory (pilot matlab implementation)
   Alexander A. Auer      : GIAO ZORA, VPT2 properties, NMR spectrum
   Ute Becker             : Parallelization
   Giovanni Bistoni       : ED, misc. LED, open-shell LED, HFLD
   Martin Brehm           : Molecular dynamics
   Dmytro Bykov           : SCF Hessian
   Vijay G. Chilkuri      : MRCI spin determinant printing, contributions to CSF-ICE
   Dipayan Datta          : RHF DLPNO-CCSD density
   Achintya Kumar Dutta   : EOM-CC, STEOM-CC
   Dmitry Ganyushin       : Spin-Orbit,Spin-Spin,Magnetic field MRCI
   Miquel Garcia          : C-PCM and meta-GGA Hessian, CC/C-PCM, Gaussian charge scheme
   Yang Guo               : DLPNO-NEVPT2, F12-NEVPT2, CIM, IAO-localization
   Andreas Hansen         : Spin unrestricted coupled pair/coupled cluster methods
   Benjamin Helmich-Paris : MC-RPA, TRAH-SCF, COSX integrals
   Lee Huntington         : MR-EOM, pCC
   Robert Izsak           : Overlap fitted RIJCOSX, COSX-SCS-MP3, EOM
   Marcus Kettner         : VPT2
   Christian Kollmar      : KDIIS, OOCD, Brueckner-CCSD(T), CCSD density, CASPT2, CASPT2-K
   Simone Kossmann        : Meta GGA functionals, TD-DFT gradient, OOMP2, MP2 Hessian
   Martin Krupicka        : Initial AUTO-CI
   Lucas Lang             : DCDCAS
   Marvin Lechner         : AUTO-CI (C++ implementation), FIC-MRCC
   Dagmar Lenk            : GEPOL surface, SMD
   Dimitrios Liakos       : Extrapolation schemes; Compound Job, initial MDCI parallelization
   Dimitrios Manganas     : Further ROCIS development; embedding schemes
   Dimitrios Pantazis     : SARC Basis sets
   Anastasios Papadopoulos: AUTO-CI, single reference methods and gradients
   Taras Petrenko         : DFT Hessian,TD-DFT gradient, ASA, ECA, R-Raman, ABS, FL, XAS/XES, NRVS
   Peter Pinski           : DLPNO-MP2, DLPNO-MP2 Gradient
   Christoph Reimann      : Effective Core Potentials
   Marius Retegan         : Local ZFS, SOC
   Christoph Riplinger    : Optimizer, TS searches, QM/MM, DLPNO-CCSD(T), (RO)-DLPNO pert. Triples
   Tobias Risthaus        : Range-separated hybrids, TD-DFT gradient, RPA, STAB
   Michael Roemelt        : Original ROCIS implementation
   Masaaki Saitow         : Open-shell DLPNO-CCSD energy and density
   Barbara Sandhoefer     : DKH picture change effects
   Avijit Sen             : IP-ROCIS
   Kantharuban Sivalingam : CASSCF convergence, NEVPT2, FIC-MRCI
   Bernardo de Souza      : ESD, SOC TD-DFT
   Georgi Stoychev        : AutoAux, RI-MP2 NMR, DLPNO-MP2 response
   Willem Van den Heuvel  : Paramagnetic NMR
   Boris Wezisla          : Elementary symmetry handling
   Frank Wennmohs         : Technical directorship


 We gratefully acknowledge several colleagues who have allowed us to
 interface, adapt or use parts of their codes:
   Stefan Grimme, W. Hujo, H. Kruse, P. Pracht,  : VdW corrections, initial TS optimization,
                  C. Bannwarth, S. Ehlert          DFT functionals, gCP, sTDA/sTD-DF
   Ed Valeev, F. Pavosevic, A. Kumar             : LibInt (2-el integral package), F12 methods
   Garnet Chan, S. Sharma, J. Yang, R. Olivares  : DMRG
   Ulf Ekstrom                                   : XCFun DFT Library
   Mihaly Kallay                                 : mrcc  (arbitrary order and MRCC methods)
   Jiri Pittner, Ondrej Demel                    : Mk-CCSD
   Frank Weinhold                                : gennbo (NPA and NBO analysis)
   Christopher J. Cramer and Donald G. Truhlar   : smd solvation model
   Lars Goerigk                                  : TD-DFT with DH, B97 family of functionals
   V. Asgeirsson, H. Jonsson                     : NEB implementation
   FAccTs GmbH                                   : IRC, NEB, NEB-TS, DLPNO-Multilevel, CI-OPT
                                                   MM, QMMM, 2- and 3-layer-ONIOM, Crystal-QMMM,
                                                   LR-CPCM, SF, NACMEs, symmetry and pop. for TD-DFT,
                                                   nearIR, NL-DFT gradient (VV10), updates on ESD,
                                                   ML-optimized integration grids
   S Lehtola, MJT Oliveira, MAL Marques          : LibXC Library
   Liviu Ungur et al                             : ANISO software


 Your calculation uses the libint2 library for the computation of 2-el integrals
 For citations please refer to: http://libint.valeyev.net

 Your ORCA version has been built with support for libXC version: 5.1.0
 For citations please refer to: https://tddft.org/programs/libxc/

 This ORCA versions uses:
   CBLAS   interface :  Fast vector & matrix operations
   LAPACKE interface :  Fast linear algebra routines
   SCALAPACK package :  Parallel linear algebra routines
   Shared memory     :  Shared parallel matrices
   BLAS/LAPACK       :  OpenBLAS 0.3.15  USE64BITINT DYNAMIC_ARCH NO_AFFINITY SkylakeX SINGLE_THREADED
        Core in use  :  SkylakeX
   Copyright (c) 2011-2014, The OpenBLAS Project




***************************************
The coordinates will be read from file: T1_XTB_OPT_XYZ.xyz
***************************************


Your calculation utilizes the atom-pairwise dispersion correction
with the Becke-Johnson damping scheme (D3BJ)
Cite in your paper:
S.Grimme, S.Ehrlich, L.Goerigk, J Comput Chem, (2011), 32, 1456–1465 
S.Grimme, J.Antony, S.Ehrlich and H.Krieg, J.Chem.Phys., 132, (2010), 154104 
   

================================================================================

----- Orbital basis set information -----
Your calculation utilizes the basis: def2-SVP
   F. Weigend and R. Ahlrichs, Phys. Chem. Chem. Phys. 7, 3297 (2005).

----- AuxJ basis set information -----
Your calculation utilizes the auxiliary basis: def2/J
   F. Weigend, Phys. Chem. Chem. Phys. 8, 1057 (2006).

================================================================================
                                        WARNINGS
                       Please study these warnings very carefully!
================================================================================

INFO   : Checking CIS options ...

WARNING: (CIS/TDDFT): IROOTMULT=TRIPLETS needs TRIPLETS set to TRUE
  ===> : ajusting flags

WARNING: CIS/ROCIS methods need fully converged wavefunctions
  ===> : Setting SCFConvForced true
         You can overwrite this default with %scf ConvForced false 


INFO   : the flag for use of the SHARK integral package has been found!

================================================================================
                                       INPUT FILE
================================================================================
NAME = /dev/shm/slurm.malcolms.9693129/9693129/T1/T1_OPT.inp
|  1> ! PBE0 def2-SVP D3BJ def2/J RIJCOSX tightSCF noautostart miniprint nopop defgrid3 Opt
|  2> %maxcore    4000
|  3> %pal    nprocs  40  end
|  4> %geom	Convergence	loose
|  5> 	MaxIter	5
|  6> end
|  7> %tddft  PrintLevel  3
|  8> 	IRootMult	Triplet
|  9> 	NRoots	5
| 10> 	IRoot	1
| 11> 	TDA	True
| 12>         MaxDim  10
| 13> end
| 14> * xyzfile 0 1 T1_XTB_OPT_XYZ.xyz
| 15> 
| 16> 
| 17>                          ****END OF INPUT****
================================================================================

                       *****************************
                       * Geometry Optimization Run *
                       *****************************

Geometry optimization settings:
Update method            Update   .... BFGS
Choice of coordinates    CoordSys .... Z-matrix Internals
Initial Hessian          InHess   .... Almoef's Model

Convergence Tolerances:
Energy Change            TolE     ....  3.0000e-05 Eh
Max. Gradient            TolMAXG  ....  2.0000e-03 Eh/bohr
RMS Gradient             TolRMSG  ....  5.0000e-04 Eh/bohr
Max. Displacement        TolMAXD  ....  1.0000e-02 bohr
RMS Displacement         TolRMSD  ....  7.0000e-03 bohr
Strict Convergence                ....  False
------------------------------------------------------------------------------
                        ORCA OPTIMIZATION COORDINATE SETUP
------------------------------------------------------------------------------

The optimization will be done in new redundant internal coordinates
Making redundant internal coordinates   ...  (new redundants) done
Evaluating the initial hessian          ...  (Almloef) done
Evaluating the coordinates              ...  done
Calculating the B-matrix                .... done
Calculating the G-matrix                .... done
Diagonalizing the G-matrix              .... done
Small eigenvalue found = 1.250e-04
Small eigenvalue found = 4.727e-04
Small eigenvalue found = 8.454e-04
Small eigenvalue found = 1.576e-03
Small eigenvalue found = 1.769e-03
Small eigenvalue found = 3.305e-03
Small eigenvalue found = 4.477e-03
Small eigenvalue found = 6.530e-03
Small eigenvalue found = 9.904e-03
Small eigenvalue found = 1.252e-02
Small eigenvalue found = 1.639e-02
Small eigenvalue found = 1.692e-02
Small eigenvalue found = 2.743e-02
Small eigenvalue found = 2.866e-02
The first mode is                       ....  261
The number of degrees of freedom        ....  264

    -----------------------------------------------------------------
                    Redundant Internal Coordinates


    -----------------------------------------------------------------
         Definition                    Initial Value    Approx d2E/dq
    -----------------------------------------------------------------
      1. B(C   1,O   0)                  1.2229         1.033893   
      2. B(C   2,C   1)                  1.4733         0.460095   
      3. B(C   3,C   2)                  1.3665         0.681154   
      4. B(C   4,C   3)                  1.4119         0.576533   
      5. B(C   5,C   4)                  1.4179         0.564008   
      6. B(C   6,C   5)                  1.3667         0.680756   
      7. B(C   7,C   6)                  1.4280         0.543450   
      8. B(C   8,C   7)                  1.4085         0.583768   
      9. B(C   9,C   8)                  1.3733         0.664398   
     10. B(C  10,C   9)                  1.3974         0.607950   
     11. B(N  11,C  10)                  1.3949         0.549554   
     12. B(C  12,N  11)                  1.3827         0.574913   
     13. B(C  13,C  12)                  1.3878         0.629956   
     14. B(C  14,C  13)                  1.3822         0.642902   
     15. B(C  15,C  14)                  1.3926         0.618804   
     16. B(C  16,C  15)                  1.3815         0.644597   
     17. B(C  17,C  16)                  1.3876         0.630259   
     18. B(C  17,C  12)                  1.4138         0.572408   
     19. B(C  18,C  17)                  1.4374         0.524990   
     20. B(C  19,C  18)                  1.3876         0.630286   
     21. B(C  20,C  19)                  1.3815         0.644551   
     22. B(C  21,C  20)                  1.3926         0.618812   
     23. B(C  22,C  21)                  1.3822         0.642935   
     24. B(C  23,C  22)                  1.3878         0.629880   
     25. B(C  23,C  18)                  1.4138         0.572442   
     26. B(C  23,N  11)                  1.3825         0.575229   
     27. B(C  24,C  10)                  1.3976         0.607547   
     28. B(C  25,C  24)                  1.3735         0.663719   
     29. B(C  25,C   7)                  1.4074         0.586096   
     30. B(C  26,C   4)                  1.4296         0.540240   
     31. B(C  27,C  26)                  1.3647         0.685611   
     32. B(C  28,C  27)                  1.4061         0.588988   
     33. B(C  28,C   2)                  1.4390         0.521880   
     34. B(C  29,C  28)                  1.4067         0.587638   
     35. B(C  30,C  29)                  1.4061         0.588976   
     36. B(C  31,C  30)                  1.3647         0.685587   
     37. B(C  32,C  31)                  1.4296         0.540250   
     38. B(C  33,C  32)                  1.4179         0.563974   
     39. B(C  34,C  33)                  1.3666         0.680757   
     40. B(C  35,C  34)                  1.4280         0.543478   
     41. B(C  36,C  35)                  1.4085         0.583765   
     42. B(C  37,C  36)                  1.3733         0.664412   
     43. B(C  38,C  37)                  1.3974         0.607973   
     44. B(N  39,C  38)                  1.3949         0.549547   
     45. B(C  40,N  39)                  1.3826         0.574942   
     46. B(C  41,C  40)                  1.3878         0.629955   
     47. B(C  42,C  41)                  1.3822         0.642889   
     48. B(C  43,C  42)                  1.3926         0.618800   
     49. B(C  44,C  43)                  1.3815         0.644597   
     50. B(C  45,C  44)                  1.3876         0.630264   
     51. B(C  45,C  40)                  1.4139         0.572383   
     52. B(C  46,C  45)                  1.4374         0.524987   
     53. B(C  47,C  46)                  1.3876         0.630276   
     54. B(C  48,C  47)                  1.3815         0.644546   
     55. B(C  49,C  48)                  1.3926         0.618812   
     56. B(C  50,C  49)                  1.3822         0.642946   
     57. B(C  51,C  50)                  1.3878         0.629886   
     58. B(C  51,C  46)                  1.4138         0.572466   
     59. B(C  51,N  39)                  1.3825         0.575220   
     60. B(C  52,C  38)                  1.3976         0.607526   
     61. B(C  53,C  52)                  1.3736         0.663709   
     62. B(C  53,C  35)                  1.4074         0.586111   
     63. B(C  54,C  32)                  1.4119         0.576528   
     64. B(C  55,C  54)                  1.3665         0.681180   
     65. B(C  55,C  29)                  1.4390         0.521905   
     66. B(C  55,C   1)                  1.4733         0.460097   
     67. B(H  56,C   3)                  1.0790         0.374967   
     68. B(H  57,C   5)                  1.0825         0.370164   
     69. B(H  58,C   6)                  1.0812         0.371963   
     70. B(H  59,C   8)                  1.0804         0.372973   
     71. B(H  60,C   9)                  1.0798         0.373843   
     72. B(H  61,C  13)                  1.0792         0.374616   
     73. B(H  62,C  14)                  1.0799         0.373762   
     74. B(H  63,C  15)                  1.0797         0.373982   
     75. B(H  64,C  16)                  1.0794         0.374338   
     76. B(H  65,C  19)                  1.0794         0.374353   
     77. B(H  66,C  20)                  1.0797         0.373971   
     78. B(H  67,C  21)                  1.0799         0.373708   
     79. B(H  68,C  22)                  1.0793         0.374534   
     80. B(H  69,C  24)                  1.0800         0.373551   
     81. B(H  70,C  25)                  1.0786         0.375568   
     82. B(H  71,C  26)                  1.0813         0.371791   
     83. B(H  72,C  27)                  1.0804         0.372997   
     84. B(H  73,C  30)                  1.0804         0.372994   
     85. B(H  74,C  31)                  1.0813         0.371790   
     86. B(H  75,C  33)                  1.0825         0.370159   
     87. B(H  76,C  34)                  1.0812         0.371969   
     88. B(H  77,C  36)                  1.0804         0.372975   
     89. B(H  78,C  37)                  1.0798         0.373845   
     90. B(H  79,C  41)                  1.0792         0.374613   
     91. B(H  80,C  42)                  1.0799         0.373760   
     92. B(H  81,C  43)                  1.0797         0.373979   
     93. B(H  82,C  44)                  1.0794         0.374336   
     94. B(H  83,C  47)                  1.0794         0.374353   
     95. B(H  84,C  48)                  1.0797         0.373971   
     96. B(H  85,C  49)                  1.0799         0.373708   
     97. B(H  86,C  50)                  1.0793         0.374534   
     98. B(H  87,C  52)                  1.0800         0.373546   
     99. B(H  88,C  53)                  1.0786         0.375561   
    100. B(H  89,C  54)                  1.0790         0.374973   
    101. A(C   2,C   1,C  55)          104.3340         0.390482   
    102. A(O   0,C   1,C   2)          127.8337         0.448136   
    103. A(O   0,C   1,C  55)          127.8323         0.448136   
    104. A(C   1,C   2,C   3)          129.3194         0.418479   
    105. A(C   1,C   2,C  28)          109.1782         0.399203   
    106. A(C   3,C   2,C  28)          121.5024         0.428011   
    107. A(C   4,C   3,H  56)          121.0410         0.350991   
    108. A(C   2,C   3,H  56)          119.1104         0.361068   
    109. A(C   2,C   3,C   4)          119.8485         0.435740   
    110. A(C   3,C   4,C   5)          123.5030         0.421241   
    111. A(C   5,C   4,C  26)          118.4561         0.416388   
    112. A(C   3,C   4,C  26)          118.0408         0.418019   
    113. A(C   4,C   5,C   6)          126.5102         0.433975   
    114. A(C   6,C   5,H  57)          118.4743         0.360239   
    115. A(C   4,C   5,H  57)          115.0152         0.348932   
    116. A(C   7,C   6,H  58)          114.9229         0.347040   
    117. A(C   5,C   6,C   7)          126.3572         0.431088   
    118. A(C   5,C   6,H  58)          118.7195         0.360537   
    119. A(C   6,C   7,C  25)          123.8946         0.419690   
    120. A(C   6,C   7,C   8)          118.9227         0.419392   
    121. A(C   8,C   7,C  25)          117.1825         0.425090   
    122. A(C   7,C   8,H  59)          118.8633         0.351414   
    123. A(C   7,C   8,C   9)          121.7052         0.434765   
    124. A(C   9,C   8,H  59)          119.4272         0.359212   
    125. A(C   8,C   9,H  60)          120.3776         0.359355   
    126. A(C  10,C   9,H  60)          119.4010         0.353976   
    127. A(C   8,C   9,C  10)          120.1996         0.437957   
    128. A(C   9,C  10,C  24)          118.9993         0.430963   
    129. A(N  11,C  10,C  24)          120.4178         0.420485   
    130. A(C   9,C  10,N  11)          120.5828         0.420535   
    131. A(C  12,N  11,C  23)          108.3179         0.417047   
    132. A(C  10,N  11,C  23)          125.8132         0.413715   
    133. A(C  10,N  11,C  12)          125.8679         0.413674   
    134. A(C  13,C  12,C  17)          120.9992         0.429108   
    135. A(N  11,C  12,C  17)          109.3116         0.419401   
    136. A(N  11,C  12,C  13)          129.6079         0.426643   
    137. A(C  12,C  13,C  14)          117.8326         0.438167   
    138. A(C  12,C  13,H  61)          121.3555         0.356242   
    139. A(C  14,C  13,H  61)          120.8060         0.357475   
    140. A(C  15,C  14,H  62)          119.2961         0.355026   
    141. A(C  13,C  14,H  62)          119.2028         0.357337   
    142. A(C  13,C  14,C  15)          121.5005         0.436759   
    143. A(C  16,C  15,H  63)          119.7915         0.357532   
    144. A(C  14,C  15,H  63)          119.2761         0.355062   
    145. A(C  14,C  15,C  16)          120.9284         0.436966   
    146. A(C  17,C  16,H  64)          120.4397         0.356226   
    147. A(C  15,C  16,C  17)          118.5961         0.438414   
    148. A(C  15,C  16,H  64)          120.9633         0.357590   
    149. A(C  16,C  17,C  18)          133.3586         0.422553   
    150. A(C  12,C  17,C  18)          106.5283         0.415363   
    151. A(C  12,C  17,C  16)          120.1078         0.429145   
    152. A(C  17,C  18,C  23)          106.5167         0.415367   
    153. A(C  17,C  18,C  19)          133.3748         0.422556   
    154. A(C  19,C  18,C  23)          120.1035         0.429153   
    155. A(C  18,C  19,H  65)          120.4417         0.356231   
    156. A(C  18,C  19,C  20)          118.5997         0.438411   
    157. A(C  20,C  19,H  65)          120.9577         0.357588   
    158. A(C  19,C  20,H  66)          119.7932         0.357526   
    159. A(C  21,C  20,H  66)          119.2738         0.355061   
    160. A(C  19,C  20,C  21)          120.9289         0.436961   
    161. A(C  20,C  21,H  67)          119.2950         0.355018   
    162. A(C  20,C  21,C  22)          121.4955         0.436764   
    163. A(C  22,C  21,H  67)          119.2088         0.357331   
    164. A(C  21,C  22,H  68)          120.8165         0.357465   
    165. A(C  21,C  22,C  23)          117.8365         0.438162   
    166. A(C  23,C  22,H  68)          121.3407         0.356221   
    167. A(N  11,C  23,C  18)          109.3244         0.419447   
    168. A(N  11,C  23,C  22)          129.5951         0.426676   
    169. A(C  18,C  23,C  22)          120.9985         0.429104   
    170. A(C  25,C  24,H  69)          120.1757         0.359244   
    171. A(C  10,C  24,H  69)          119.2080         0.353889   
    172. A(C  10,C  24,C  25)          120.5920         0.437823   
    173. A(C  24,C  25,H  70)          118.7964         0.359574   
    174. A(C   7,C  25,H  70)          119.8760         0.352063   
    175. A(C   7,C  25,C  24)          121.3213         0.434997   
    176. A(C   4,C  26,C  27)          122.6494         0.431179   
    177. A(C  27,C  26,H  71)          119.6237         0.360946   
    178. A(C   4,C  26,H  71)          117.7269         0.346667   
    179. A(C  26,C  27,C  28)          119.1573         0.437936   
    180. A(C  28,C  27,H  72)          120.1049         0.351948   
    181. A(C  26,C  27,H  72)          120.7378         0.361145   
    182. A(C  27,C  28,C  29)          132.5439         0.425968   
    183. A(C   2,C  28,C  29)          108.6548         0.416867   
    184. A(C   2,C  28,C  27)          118.8013         0.417037   
    185. A(C  28,C  29,C  30)          132.5465         0.425966   
    186. A(C  30,C  29,C  55)          118.8002         0.417039   
    187. A(C  28,C  29,C  55)          108.6533         0.416871   
    188. A(C  29,C  30,C  31)          119.1587         0.437932   
    189. A(C  31,C  30,H  73)          120.7369         0.361143   
    190. A(C  29,C  30,H  73)          120.1044         0.351946   
    191. A(C  30,C  31,C  32)          122.6487         0.431178   
    192. A(C  32,C  31,H  74)          117.7281         0.346668   
    193. A(C  30,C  31,H  74)          119.6232         0.360944   
    194. A(C  31,C  32,C  33)          118.4648         0.416384   
    195. A(C  33,C  32,C  54)          123.4959         0.421236   
    196. A(C  31,C  32,C  54)          118.0392         0.418020   
    197. A(C  32,C  33,C  34)          126.4946         0.433970   
    198. A(C  34,C  33,H  75)          118.4816         0.360239   
    199. A(C  32,C  33,H  75)          115.0234         0.348928   
    200. A(C  33,C  34,C  35)          126.3715         0.431092   
    201. A(C  33,C  34,H  76)          118.7129         0.360538   
    202. A(C  35,C  34,H  76)          114.9150         0.347044   
    203. A(C  34,C  35,C  36)          118.9158         0.419395   
    204. A(C  36,C  35,C  53)          117.1844         0.425091   
    205. A(C  34,C  35,C  53)          123.8997         0.419695   
    206. A(C  35,C  36,C  37)          121.7066         0.434767   
    207. A(C  37,C  36,H  77)          119.4269         0.359214   
    208. A(C  35,C  36,H  77)          118.8619         0.351414   
    209. A(C  36,C  37,C  38)          120.1969         0.437961   
    210. A(C  38,C  37,H  78)          119.4028         0.353979   
    211. A(C  36,C  37,H  78)          120.3781         0.359356   
    212. A(C  37,C  38,N  39)          120.5865         0.420536   
    213. A(N  39,C  38,C  52)          120.4129         0.420481   
    214. A(C  37,C  38,C  52)          119.0006         0.430963   
    215. A(C  38,N  39,C  40)          125.8899         0.413677   
    216. A(C  40,N  39,C  51)          108.3181         0.417050   
    217. A(C  38,N  39,C  51)          125.7914         0.413713   
    218. A(N  39,C  40,C  41)          129.6094         0.426647   
    219. A(C  41,C  40,C  45)          120.9989         0.429105   
    220. A(N  39,C  40,C  45)          109.3109         0.419402   
    221. A(C  40,C  41,C  42)          117.8323         0.438166   
    222. A(C  42,C  41,H  79)          120.8068         0.357473   
    223. A(C  40,C  41,H  79)          121.3550         0.356241   
    224. A(C  41,C  42,C  43)          121.5010         0.436757   
    225. A(C  43,C  42,H  80)          119.2950         0.355026   
    226. A(C  41,C  42,H  80)          119.2035         0.357335   
    227. A(C  42,C  43,C  44)          120.9285         0.436965   
    228. A(C  44,C  43,H  81)          119.7911         0.357532   
    229. A(C  42,C  43,H  81)          119.2765         0.355061   
    230. A(C  45,C  44,H  82)          120.4393         0.356226   
    231. A(C  43,C  44,H  82)          120.9639         0.357590   
    232. A(C  43,C  44,C  45)          118.5959         0.438414   
    233. A(C  44,C  45,C  46)          133.3575         0.422553   
    234. A(C  40,C  45,C  46)          106.5290         0.415359   
    235. A(C  40,C  45,C  44)          120.1082         0.429143   
    236. A(C  47,C  46,C  51)          120.1022         0.429155   
    237. A(C  45,C  46,C  51)          106.5157         0.415370   
    238. A(C  45,C  46,C  47)          133.3770         0.422554   
    239. A(C  48,C  47,H  83)          120.9573         0.357588   
    240. A(C  46,C  47,H  83)          120.4423         0.356230   
    241. A(C  46,C  47,C  48)          118.5995         0.438409   
    242. A(C  49,C  48,H  84)          119.2731         0.355061   
    243. A(C  47,C  48,H  84)          119.7931         0.357526   
    244. A(C  47,C  48,C  49)          120.9297         0.436961   
    245. A(C  50,C  49,H  85)          119.2083         0.357332   
    246. A(C  48,C  49,H  85)          119.2961         0.355018   
    247. A(C  48,C  49,C  50)          121.4949         0.436765   
    248. A(C  51,C  50,H  86)          121.3402         0.356222   
    249. A(C  49,C  50,H  86)          120.8176         0.357466   
    250. A(C  49,C  50,C  51)          117.8359         0.438164   
    251. A(C  46,C  51,C  50)          121.0004         0.429108   
    252. A(N  39,C  51,C  50)          129.5919         0.426676   
    253. A(N  39,C  51,C  46)          109.3254         0.419449   
    254. A(C  38,C  52,C  53)          120.5935         0.437820   
    255. A(C  53,C  52,H  87)          120.1768         0.359243   
    256. A(C  38,C  52,H  87)          119.2057         0.353886   
    257. A(C  35,C  53,C  52)          121.3177         0.434998   
    258. A(C  52,C  53,H  88)          118.8009         0.359572   
    259. A(C  35,C  53,H  88)          119.8751         0.352064   
    260. A(C  32,C  54,C  55)          119.8508         0.435742   
    261. A(C  55,C  54,H  89)          119.1066         0.361071   
    262. A(C  32,C  54,H  89)          121.0424         0.350991   
    263. A(C  29,C  55,C  54)          121.5021         0.428018   
    264. A(C   1,C  55,C  54)          129.3182         0.418483   
    265. A(C   1,C  55,C  29)          109.1797         0.399207   
    266. D(C   3,C   2,C   1,C  55)    179.9826         0.014420   
    267. D(C  28,C   2,C   1,O   0)    179.9664         0.014420   
    268. D(C  28,C   2,C   1,C  55)     -0.0328         0.014420   
    269. D(C   3,C   2,C   1,O   0)     -0.0181         0.014420   
    270. D(C   4,C   3,C   2,C   1)    179.8720         0.032532   
    271. D(H  56,C   3,C   2,C  28)   -179.9790         0.032532   
    272. D(H  56,C   3,C   2,C   1)      0.0039         0.032532   
    273. D(C   4,C   3,C   2,C  28)     -0.1109         0.032532   
    274. D(C  26,C   4,C   3,C   2)      0.0020         0.022824   
    275. D(C  26,C   4,C   3,H  56)    179.8674         0.022824   
    276. D(C   5,C   4,C   3,C   2)   -179.8989         0.022824   
    277. D(C   5,C   4,C   3,H  56)     -0.0334         0.022824   
    278. D(H  57,C   5,C   4,C  26)     -0.5433         0.021802   
    279. D(H  57,C   5,C   4,C   3)    179.3571         0.021802   
    280. D(C   6,C   5,C   4,C   3)     -0.8474         0.021802   
    281. D(C   6,C   5,C   4,C  26)    179.2522         0.021802   
    282. D(H  58,C   6,C   5,C   4)     -0.4221         0.032491   
    283. D(H  58,C   6,C   5,H  57)    179.3670         0.032491   
    284. D(C   7,C   6,C   5,H  57)     -0.3764         0.032491   
    285. D(C   7,C   6,C   5,C   4)    179.8345         0.032491   
    286. D(C  25,C   7,C   6,C   5)     -2.0188         0.020188   
    287. D(C  25,C   7,C   6,H  58)    178.2293         0.020188   
    288. D(C   8,C   7,C   6,H  58)     -1.6120         0.020188   
    289. D(C   8,C   7,C   6,C   5)    178.1399         0.020188   
    290. D(H  59,C   8,C   7,C  25)    179.3214         0.023427   
    291. D(H  59,C   8,C   7,C   6)     -0.8267         0.023427   
    292. D(C   9,C   8,C   7,C  25)      0.0832         0.023427   
    293. D(C   9,C   8,C   7,C   6)    179.9350         0.023427   
    294. D(H  60,C   9,C   8,H  59)     -0.9358         0.030833   
    295. D(C  10,C   9,C   8,H  59)   -179.2246         0.030833   
    296. D(C  10,C   9,C   8,C   7)      0.0095         0.030833   
    297. D(H  60,C   9,C   8,C   7)    178.2983         0.030833   
    298. D(C  24,C  10,C   9,H  60)   -178.3639         0.025517   
    299. D(C  24,C  10,C   9,C   8)     -0.0584         0.025517   
    300. D(N  11,C  10,C   9,H  60)      1.7480         0.025517   
    301. D(N  11,C  10,C   9,C   8)   -179.9465         0.025517   
    302. D(C  23,N  11,C  10,C  24)     47.6770         0.024069   
    303. D(C  23,N  11,C  10,C   9)   -132.4365         0.024069   
    304. D(C  12,N  11,C  10,C  24)   -131.9295         0.024069   
    305. D(C  12,N  11,C  10,C   9)     47.9570         0.024069   
    306. D(C  17,C  12,N  11,C  23)     -0.1225         0.026480   
    307. D(C  17,C  12,N  11,C  10)    179.5414         0.026480   
    308. D(C  13,C  12,N  11,C  23)   -176.8082         0.026480   
    309. D(C  13,C  12,N  11,C  10)      2.8556         0.026480   
    310. D(H  61,C  13,C  12,N  11)     -0.8027         0.027515   
    311. D(H  61,C  13,C  12,C  17)   -177.1534         0.027515   
    312. D(C  14,C  13,C  12,C  17)      1.9654         0.027515   
    313. D(C  14,C  13,C  12,N  11)    178.3160         0.027515   
    314. D(H  62,C  14,C  13,H  61)     -1.1309         0.028735   
    315. D(H  62,C  14,C  13,C  12)    179.7453         0.028735   
    316. D(C  15,C  14,C  13,C  12)     -0.5477         0.028735   
    317. D(C  15,C  14,C  13,H  61)    178.5761         0.028735   
    318. D(H  63,C  15,C  14,H  62)     -0.4875         0.026491   
    319. D(H  63,C  15,C  14,C  13)    179.8058         0.026491   
    320. D(C  16,C  15,C  14,C  13)     -0.9187         0.026491   
    321. D(C  16,C  15,C  14,H  62)    178.7880         0.026491   
    322. D(H  64,C  16,C  15,H  63)      0.5586         0.028897   
    323. D(H  64,C  16,C  15,C  14)   -178.7132         0.028897   
    324. D(C  17,C  16,C  15,C  14)      0.9362         0.028897   
    325. D(C  17,C  16,C  15,H  63)   -179.7919         0.028897   
    326. D(C  18,C  17,C  12,N  11)      0.2784         0.022484   
    327. D(C  16,C  17,C  12,C  13)     -1.9661         0.022484   
    328. D(C  16,C  17,C  12,N  11)   -178.9876         0.022484   
    329. D(C  18,C  17,C  16,H  64)      1.0932         0.027543   
    330. D(C  18,C  17,C  16,C  15)   -178.5582         0.027543   
    331. D(C  12,C  17,C  16,H  64)   -179.8747         0.027543   
    332. D(C  12,C  17,C  16,C  15)      0.4739         0.027543   
    333. D(C  18,C  17,C  12,C  13)    177.2999         0.022484   
    334. D(C  23,C  18,C  17,C  16)    178.8039         0.018804   
    335. D(C  23,C  18,C  17,C  12)     -0.3228         0.018804   
    336. D(C  19,C  18,C  17,C  16)     -2.0381         0.018804   
    337. D(C  19,C  18,C  17,C  12)    178.8353         0.018804   
    338. D(H  65,C  19,C  18,C  23)   -179.8461         0.027546   
    339. D(H  65,C  19,C  18,C  17)      1.0870         0.027546   
    340. D(C  20,C  19,C  18,C  23)      0.5013         0.027546   
    341. D(C  20,C  19,C  18,C  17)   -178.5656         0.027546   
    342. D(H  66,C  20,C  19,H  65)      0.5583         0.028892   
    343. D(H  66,C  20,C  19,C  18)   -179.7909         0.028892   
    344. D(C  21,C  20,C  19,H  65)   -178.6957         0.028892   
    345. D(C  21,C  20,C  19,C  18)      0.9551         0.028892   
    346. D(H  67,C  21,C  20,H  66)     -0.5167         0.026491   
    347. D(H  67,C  21,C  20,C  19)    178.7411         0.026491   
    348. D(C  22,C  21,C  20,H  66)    179.7887         0.026491   
    349. D(C  22,C  21,C  20,C  19)     -0.9534         0.026491   
    350. D(H  68,C  22,C  21,H  67)     -1.1415         0.028738   
    351. D(H  68,C  22,C  21,C  20)    178.5533         0.028738   
    352. D(C  23,C  22,C  21,H  67)    179.7602         0.028738   
    353. D(C  23,C  22,C  21,C  20)     -0.5450         0.028738   
    354. D(C  18,C  23,C  22,H  68)   -177.0839         0.027508   
    355. D(C  18,C  23,C  22,C  21)      2.0094         0.027508   
    356. D(N  11,C  23,C  22,H  68)     -0.7472         0.027508   
    357. D(N  11,C  23,C  22,C  21)    178.3461         0.027508   
    358. D(C  22,C  23,C  18,C  19)     -2.0260         0.022487   
    359. D(C  22,C  23,C  18,C  17)    177.2666         0.022487   
    360. D(N  11,C  23,C  18,C  19)   -179.0354         0.022487   
    361. D(N  11,C  23,C  18,C  17)      0.2572         0.022487   
    362. D(C  22,C  23,N  11,C  12)   -176.7607         0.026511   
    363. D(C  22,C  23,N  11,C  10)      3.5752         0.026511   
    364. D(C  18,C  23,N  11,C  12)     -0.0878         0.026511   
    365. D(C  18,C  23,N  11,C  10)   -179.7519         0.026511   
    366. D(H  69,C  24,C  10,N  11)      1.6914         0.025481   
    367. D(H  69,C  24,C  10,C   9)   -178.1969         0.025481   
    368. D(C  25,C  24,C  10,N  11)    179.8999         0.025481   
    369. D(C  25,C  24,C  10,C   9)      0.0116         0.025481   
    370. D(H  70,C  25,C  24,H  69)     -0.8061         0.030765   
    371. D(H  70,C  25,C  24,C  10)   -178.9973         0.030765   
    372. D(C   7,C  25,C  24,H  69)    178.2764         0.030765   
    373. D(C   7,C  25,C  24,C  10)      0.0852         0.030765   
    374. D(H  70,C  25,C   7,C   8)    178.9424         0.023624   
    375. D(H  70,C  25,C   7,C   6)     -0.9014         0.023624   
    376. D(C  24,C  25,C   7,C   8)     -0.1304         0.023624   
    377. D(C  24,C  25,C   7,C   6)   -179.9741         0.023624   
    378. D(H  71,C  26,C   4,C   5)     -0.0500         0.019943   
    379. D(C  27,C  26,C   4,C   5)   -179.9906         0.019943   
    380. D(C  27,C  26,C   4,C   3)      0.1035         0.019943   
    381. D(H  71,C  26,C   4,C   3)   -179.9560         0.019943   
    382. D(H  72,C  27,C  26,H  71)      0.0054         0.032993   
    383. D(H  72,C  27,C  26,C   4)    179.9449         0.032993   
    384. D(C  28,C  27,C  26,H  71)    179.9661         0.032993   
    385. D(C  28,C  27,C  26,C   4)     -0.0944         0.032993   
    386. D(C   2,C  28,C  27,H  72)    179.9451         0.023869   
    387. D(C   2,C  28,C  27,C  26)     -0.0159         0.023869   
    388. D(C  29,C  28,C   2,C   3)   -179.9328         0.018577   
    389. D(C  29,C  28,C   2,C   1)      0.0812         0.018577   
    390. D(C  27,C  28,C   2,C   3)      0.1199         0.018577   
    391. D(C  29,C  28,C  27,C  26)   -179.9480         0.023869   
    392. D(C  27,C  28,C   2,C   1)   -179.8660         0.018577   
    393. D(C  29,C  28,C  27,H  72)      0.0130         0.023869   
    394. D(C  55,C  29,C  28,C  27)    179.8403         0.023754   
    395. D(C  55,C  29,C  28,C   2)     -0.0969         0.023754   
    396. D(C  30,C  29,C  28,C  27)     -0.2322         0.023754   
    397. D(C  30,C  29,C  28,C   2)    179.8305         0.023754   
    398. D(H  73,C  30,C  29,C  55)    179.9524         0.023868   
    399. D(H  73,C  30,C  29,C  28)      0.0308         0.023868   
    400. D(C  31,C  30,C  29,C  55)     -0.0061         0.023868   
    401. D(C  31,C  30,C  29,C  28)   -179.9277         0.023868   
    402. D(H  74,C  31,C  30,H  73)      0.0042         0.032991   
    403. D(H  74,C  31,C  30,C  29)    179.9625         0.032991   
    404. D(C  32,C  31,C  30,H  73)    179.9442         0.032991   
    405. D(C  32,C  31,C  30,C  29)     -0.0976         0.032991   
    406. D(C  54,C  32,C  31,H  74)   -179.9615         0.019944   
    407. D(C  54,C  32,C  31,C  30)      0.0975         0.019944   
    408. D(C  33,C  32,C  31,H  74)     -0.0536         0.019944   
    409. D(C  33,C  32,C  31,C  30)   -179.9946         0.019944   
    410. D(H  75,C  33,C  32,C  54)    179.3476         0.021799   
    411. D(H  75,C  33,C  32,C  31)     -0.5550         0.021799   
    412. D(C  34,C  33,C  32,C  54)     -0.8722         0.021799   
    413. D(C  34,C  33,C  32,C  31)    179.2253         0.021799   
    414. D(H  76,C  34,C  33,H  75)    179.3538         0.032491   
    415. D(H  76,C  34,C  33,C  32)     -0.4196         0.032491   
    416. D(C  35,C  34,C  33,H  75)     -0.3559         0.032491   
    417. D(C  35,C  34,C  33,C  32)    179.8706         0.032491   
    418. D(C  53,C  35,C  34,H  76)    178.2148         0.020190   
    419. D(C  53,C  35,C  34,C  33)     -2.0658         0.020190   
    420. D(C  36,C  35,C  34,H  76)     -1.6455         0.020190   
    421. D(C  36,C  35,C  34,C  33)    178.0739         0.020190   
    422. D(H  77,C  36,C  35,C  53)    179.3468         0.023427   
    423. D(H  77,C  36,C  35,C  34)     -0.7835         0.023427   
    424. D(C  37,C  36,C  35,C  53)      0.1264         0.023427   
    425. D(C  37,C  36,C  35,C  34)    179.9961         0.023427   
    426. D(H  78,C  37,C  36,H  77)     -0.9319         0.030834   
    427. D(H  78,C  37,C  36,C  35)    178.2842         0.030834   
    428. D(C  38,C  37,C  36,H  77)   -179.2085         0.030834   
    429. D(C  38,C  37,C  36,C  35)      0.0077         0.030834   
    430. D(C  52,C  38,C  37,H  78)   -178.3931         0.025519   
    431. D(C  52,C  38,C  37,C  36)     -0.0998         0.025519   
    432. D(N  39,C  38,C  37,H  78)      1.6838         0.025519   
    433. D(N  39,C  38,C  37,C  36)    179.9771         0.025519   
    434. D(C  51,N  39,C  38,C  52)     47.7091         0.024068   
    435. D(C  51,N  39,C  38,C  37)   -132.3690         0.024068   
    436. D(C  40,N  39,C  38,C  52)   -131.9705         0.024068   
    437. D(C  40,N  39,C  38,C  37)     47.9515         0.024068   
    438. D(C  45,C  40,N  39,C  51)     -0.1335         0.026483   
    439. D(C  45,C  40,N  39,C  38)    179.5927         0.026483   
    440. D(C  41,C  40,N  39,C  51)   -176.8291         0.026483   
    441. D(C  41,C  40,N  39,C  38)      2.8971         0.026483   
    442. D(H  79,C  41,C  40,C  45)   -177.1621         0.027515   
    443. D(H  79,C  41,C  40,N  39)     -0.8006         0.027515   
    444. D(C  42,C  41,C  40,C  45)      1.9611         0.027515   
    445. D(C  42,C  41,C  40,N  39)    178.3226         0.027515   
    446. D(H  80,C  42,C  41,H  79)     -1.1287         0.028733   
    447. D(H  80,C  42,C  41,C  40)    179.7430         0.028733   
    448. D(C  43,C  42,C  41,H  79)    178.5803         0.028733   
    449. D(C  43,C  42,C  41,C  40)     -0.5480         0.028733   
    450. D(H  81,C  43,C  42,H  80)     -0.4857         0.026490   
    451. D(H  81,C  43,C  42,C  41)    179.8055         0.026490   
    452. D(C  44,C  43,C  42,H  80)    178.7933         0.026490   
    453. D(C  44,C  43,C  42,C  41)     -0.9154         0.026490   
    454. D(H  82,C  44,C  43,H  81)      0.5574         0.028897   
    455. D(H  82,C  44,C  43,C  42)   -178.7180         0.028897   
    456. D(C  45,C  44,C  43,H  81)   -179.7900         0.028897   
    457. D(C  45,C  44,C  43,C  42)      0.9346         0.028897   
    458. D(C  46,C  45,C  44,H  82)      1.0794         0.027544   
    459. D(C  46,C  45,C  44,C  43)   -178.5751         0.027544   
    460. D(C  40,C  45,C  44,H  82)   -179.8744         0.027544   
    461. D(C  40,C  45,C  44,C  43)      0.4711         0.027544   
    462. D(C  46,C  45,C  40,C  41)    177.3164         0.022482   
    463. D(C  46,C  45,C  40,N  39)      0.2860         0.022482   
    464. D(C  44,C  45,C  40,C  41)     -1.9602         0.022482   
    465. D(C  44,C  45,C  40,N  39)   -178.9906         0.022482   
    466. D(C  51,C  46,C  45,C  44)    178.8151         0.018804   
    467. D(C  51,C  46,C  45,C  40)     -0.3242         0.018804   
    468. D(C  47,C  46,C  45,C  44)     -2.0397         0.018804   
    469. D(C  47,C  46,C  45,C  40)    178.8210         0.018804   
    470. D(H  83,C  47,C  46,C  51)   -179.8479         0.027545   
    471. D(H  83,C  47,C  46,C  45)      1.0994         0.027545   
    472. D(C  48,C  47,C  46,C  51)      0.5037         0.027545   
    473. D(C  48,C  47,C  46,C  45)   -178.5490         0.027545   
    474. D(H  84,C  48,C  47,H  83)      0.5583         0.028892   
    475. D(H  84,C  48,C  47,C  46)   -179.7951         0.028892   
    476. D(C  49,C  48,C  47,H  83)   -178.6928         0.028892   
    477. D(C  49,C  48,C  47,C  46)      0.9537         0.028892   
    478. D(H  85,C  49,C  48,H  84)     -0.5167         0.026491   
    479. D(H  85,C  49,C  48,C  47)    178.7383         0.026491   
    480. D(C  50,C  49,C  48,H  84)    179.7907         0.026491   
    481. D(C  50,C  49,C  48,C  47)     -0.9542         0.026491   
    482. D(H  86,C  50,C  49,H  85)     -1.1407         0.028739   
    483. D(H  86,C  50,C  49,C  48)    178.5521         0.028739   
    484. D(C  51,C  50,C  49,H  85)    179.7642         0.028739   
    485. D(C  51,C  50,C  49,C  48)     -0.5430         0.028739   
    486. D(C  46,C  51,C  50,H  86)   -177.0817         0.027509   
    487. D(N  39,C  51,C  50,H  86)     -0.7529         0.027509   
    488. D(N  39,C  51,C  50,C  49)    178.3372         0.027509   
    489. D(C  50,C  51,C  46,C  47)     -2.0272         0.022489   
    490. D(C  50,C  51,C  46,C  45)    177.2546         0.022489   
    491. D(N  39,C  51,C  46,C  47)   -179.0299         0.022489   
    492. D(N  39,C  51,C  46,C  45)      0.2519         0.022489   
    493. D(C  50,C  51,N  39,C  40)   -176.7433         0.026510   
    494. D(C  50,C  51,N  39,C  38)      3.5301         0.026510   
    495. D(C  46,C  51,C  50,C  49)      2.0084         0.027509   
    496. D(C  46,C  51,N  39,C  40)     -0.0777         0.026510   
    497. D(C  46,C  51,N  39,C  38)   -179.8042         0.026510   
    498. D(H  87,C  52,C  38,N  39)      1.7552         0.025479   
    499. D(H  87,C  52,C  38,C  37)   -178.1680         0.025479   
    500. D(C  53,C  52,C  38,N  39)    179.9769         0.025479   
    501. D(C  53,C  52,C  38,C  37)      0.0537         0.025479   
    502. D(H  88,C  53,C  52,H  87)     -0.8006         0.030764   
    503. D(H  88,C  53,C  52,C  38)   -179.0050         0.030764   
    504. D(C  35,C  53,C  52,H  87)    178.2901         0.030764   
    505. D(C  35,C  53,C  52,C  38)      0.0857         0.030764   
    506. D(H  88,C  53,C  35,C  36)    178.9083         0.023625   
    507. D(H  88,C  53,C  35,C  34)     -0.9543         0.023625   
    508. D(C  52,C  53,C  35,C  36)     -0.1728         0.023625   
    509. D(C  52,C  53,C  35,C  34)    179.9647         0.023625   
    510. D(H  89,C  54,C  32,C  33)     -0.0365         0.022824   
    511. D(H  89,C  54,C  32,C  31)    179.8664         0.022824   
    512. D(C  55,C  54,C  32,C  33)   -179.8926         0.022824   
    513. D(C  55,C  54,C  32,C  31)      0.0103         0.022824   
    514. D(C  54,C  55,C  29,C  28)   -179.9484         0.018579   
    515. D(C   1,C  55,C  29,C  30)   -179.8623         0.018579   
    516. D(C   1,C  55,C  29,C  28)      0.0767         0.018579   
    517. D(C  54,C  55,C   1,C   2)   -179.9982         0.014420   
    518. D(C  54,C  55,C   1,O   0)      0.0025         0.014420   
    519. D(C  29,C  55,C   1,C   2)     -0.0260         0.014420   
    520. D(C  29,C  55,C   1,O   0)    179.9748         0.014420   
    521. D(C  29,C  55,C  54,H  89)   -179.9716         0.032535   
    522. D(C  29,C  55,C  54,C  32)     -0.1128         0.032535   
    523. D(C   1,C  55,C  54,H  89)     -0.0024         0.032535   
    524. D(C   1,C  55,C  54,C  32)    179.8565         0.032535   
    525. D(C  54,C  55,C  29,C  30)      0.1126         0.018579   
    -----------------------------------------------------------------

Number of atoms                         .... 90
Number of degrees of freedom            .... 525

         *************************************************************
         *                GEOMETRY OPTIMIZATION CYCLE   1            *
         *************************************************************
---------------------------------
CARTESIAN COORDINATES (ANGSTROEM)
---------------------------------
  O     -0.000724    1.041968   -0.003992
  C     -0.000412   -0.180927   -0.001525
  C      1.163417   -1.084300    0.002743
  C      2.495621   -0.780120    0.004595
  C      3.453278   -1.817551    0.011510
  C      4.852864   -1.590674    0.015955
  C      5.479821   -0.376451   -0.001913
  C      6.889964   -0.151660    0.005957
  C      7.369200    1.171375   -0.055297
  C      8.713249    1.453114   -0.049930
  C      9.648411    0.416873    0.017272
  N     11.015520    0.693987    0.024341
  C     11.647957    1.631614    0.819703
  C     11.121647    2.456482    1.803812
  C     11.992207    3.289261    2.481417
  C     13.356280    3.299169    2.201050
  C     13.890524    2.458571    1.243689
  C     13.035653    1.614175    0.549636
  C     13.242210    0.617637   -0.465401
  C     14.365941    0.165672   -1.142484
  C     14.208905   -0.812180   -2.105687
  C     12.949133   -1.322572   -2.408779
  C     11.815658   -0.887495   -1.748137
  C     11.971018    0.072236   -0.757808
  C      9.193652   -0.903214    0.079786
  C      7.848299   -1.180058    0.075117
  C      2.981973   -3.167201    0.016332
  C      1.654421   -3.483491    0.012428
  C      0.703463   -2.447804    0.005322
  C     -0.703221   -2.448155    0.000984
  C     -1.653726   -3.484286   -0.001974
  C     -2.981433   -3.168631   -0.007565
  C     -3.453349   -1.819191   -0.008525
  C     -4.853018   -1.592756   -0.014390
  C     -5.480020   -0.378496   -0.001273
  C     -6.890104   -0.153443   -0.009821
  C     -7.368911    1.169919    0.047655
  C     -8.712874    1.452049    0.042703
  C     -9.648360    0.415850   -0.020295
  N    -11.015447    0.693132   -0.025323
  C    -11.649763    1.628956   -0.821287
  C    -11.125915    2.451256   -1.808854
  C    -11.998086    3.282690   -2.486051
  C    -13.361374    3.293744   -2.201923
  C    -13.893229    2.455696   -1.241002
  C    -13.036710    1.612719   -0.547262
  C    -13.240758    0.618978    0.471022
  C    -14.362672    0.169365    1.152676
  C    -14.203170   -0.805773    2.118225
  C    -12.942708   -1.315774    2.419101
  C    -11.811021   -0.883041    1.753881
  C    -11.968941    0.073912    0.761275
  C     -9.194016   -0.904523   -0.079937
  C     -7.848740   -1.181767   -0.075685
  C     -2.496134   -0.781331   -0.005566
  C     -1.163798   -1.084877   -0.002128
  H      2.797532    0.255766    0.002887
  H      5.461609   -2.485643    0.032121
  H      4.875729    0.519824   -0.028563
  H      6.657266    1.981482   -0.120304
  H      9.057522    2.473790   -0.125267
  H     10.070008    2.441491    2.045876
  H     11.605709    3.943418    3.248752
  H     14.003357    3.966583    2.750241
  H     14.950625    2.451133    1.040387
  H     15.339452    0.576493   -0.921849
  H     15.070708   -1.180332   -2.641912
  H     12.854265   -2.071772   -3.180718
  H     10.841833   -1.273673   -2.007799
  H      9.912612   -1.705006    0.161424
  H      7.529220   -2.208230    0.140872
  H      3.719743   -3.957692    0.022356
  H      1.332456   -4.514820    0.015377
  H     -1.331296   -4.515475   -0.000503
  H     -3.718827   -3.959491   -0.010485
  H     -5.461618   -2.487882   -0.027234
  H     -4.875866    0.517818    0.022267
  H     -6.656678    1.979996    0.109658
  H     -9.056777    2.473044    0.115327
  H    -10.074943    2.435362   -2.053749
  H    -11.613515    3.934888   -3.256020
  H    -14.009756    3.960049   -2.750923
  H    -14.952753    2.449161   -1.034679
  H    -15.336672    0.579943    0.933753
  H    -15.063525   -1.172023    2.658064
  H    -12.845838   -2.062753    3.192942
  H    -10.836571   -1.268813    2.011796
  H     -9.913308   -1.706298   -0.158802
  H     -7.529948   -2.210183   -0.139044
  H     -2.798458    0.254428   -0.008290

----------------------------
CARTESIAN COORDINATES (A.U.)
----------------------------
  NO LB      ZA    FRAG     MASS         X           Y           Z
   0 O     8.0000    0    15.999   -0.001369    1.969035   -0.007543
   1 C     6.0000    0    12.011   -0.000778   -0.341903   -0.002881
   2 C     6.0000    0    12.011    2.198539   -2.049030    0.005183
   3 C     6.0000    0    12.011    4.716041   -1.474214    0.008683
   4 C     6.0000    0    12.011    6.525749   -3.434673    0.021750
   5 C     6.0000    0    12.011    9.170584   -3.005939    0.030150
   6 C     6.0000    0    12.011   10.355360   -0.711388   -0.003615
   7 C     6.0000    0    12.011   13.020146   -0.286596    0.011256
   8 C     6.0000    0    12.011   13.925770    2.213579   -0.104497
   9 C     6.0000    0    12.011   16.465655    2.745987   -0.094355
  10 C     6.0000    0    12.011   18.232854    0.787775    0.032639
  11 N     7.0000    0    14.007   20.816315    1.311445    0.045997
  12 C     6.0000    0    12.011   22.011448    3.083303    1.549013
  13 C     6.0000    0    12.011   21.016866    4.642079    3.408710
  14 C     6.0000    0    12.011   22.661987    6.215802    4.689198
  15 C     6.0000    0    12.011   25.239712    6.234526    4.159382
  16 C     6.0000    0    12.011   26.249286    4.646025    2.350232
  17 C     6.0000    0    12.011   24.633813    3.050349    1.038662
  18 C     6.0000    0    12.011   25.024150    1.167166   -0.879480
  19 C     6.0000    0    12.011   27.147694    0.313075   -2.158982
  20 C     6.0000    0    12.011   26.850939   -1.534799   -3.979172
  21 C     6.0000    0    12.011   24.470315   -2.499298   -4.551933
  22 C     6.0000    0    12.011   22.328359   -1.677123   -3.303501
  23 C     6.0000    0    12.011   22.621945    0.136506   -1.432049
  24 C     6.0000    0    12.011   17.373485   -1.706828    0.150773
  25 C     6.0000    0    12.011   14.831137   -2.229986    0.141951
  26 C     6.0000    0    12.011    5.635113   -5.985142    0.030862
  27 C     6.0000    0    12.011    3.126403   -6.582844    0.023485
  28 C     6.0000    0    12.011    1.329352   -4.625679    0.010058
  29 C     6.0000    0    12.011   -1.328895   -4.626342    0.001859
  30 C     6.0000    0    12.011   -3.125090   -6.584347   -0.003731
  31 C     6.0000    0    12.011   -5.634092   -5.987844   -0.014295
  32 C     6.0000    0    12.011   -6.525884   -3.437773   -0.016111
  33 C     6.0000    0    12.011   -9.170876   -3.009874   -0.027192
  34 C     6.0000    0    12.011  -10.355737   -0.715253   -0.002405
  35 C     6.0000    0    12.011  -13.020409   -0.289965   -0.018559
  36 C     6.0000    0    12.011  -13.925223    2.210826    0.090056
  37 C     6.0000    0    12.011  -16.464945    2.743975    0.080696
  38 C     6.0000    0    12.011  -18.232758    0.785843   -0.038353
  39 N     7.0000    0    14.007  -20.816179    1.309829   -0.047853
  40 C     6.0000    0    12.011  -22.014862    3.078281   -1.552008
  41 C     6.0000    0    12.011  -21.024933    4.632203   -3.418239
  42 C     6.0000    0    12.011  -22.673096    6.203385   -4.697956
  43 C     6.0000    0    12.011  -25.249337    6.224274   -4.161031
  44 C     6.0000    0    12.011  -26.254398    4.640594   -2.345154
  45 C     6.0000    0    12.011  -24.635811    3.047596   -1.034176
  46 C     6.0000    0    12.011  -25.021406    1.169700    0.890102
  47 C     6.0000    0    12.011  -27.141517    0.320053    2.178242
  48 C     6.0000    0    12.011  -26.840101   -1.522690    4.002866
  49 C     6.0000    0    12.011  -24.458174   -2.486452    4.571439
  50 C     6.0000    0    12.011  -22.319595   -1.668706    3.314355
  51 C     6.0000    0    12.011  -22.618020    0.139673    1.438601
  52 C     6.0000    0    12.011  -17.374172   -1.709301   -0.151059
  53 C     6.0000    0    12.011  -14.831969   -2.233216   -0.143024
  54 C     6.0000    0    12.011   -4.717010   -1.476502   -0.010518
  55 C     6.0000    0    12.011   -2.199260   -2.050120   -0.004022
  56 H     1.0000    0     1.008    5.286569    0.483328    0.005456
  57 H     1.0000    0     1.008   10.320945   -4.697184    0.060700
  58 H     1.0000    0     1.008    9.213793    0.982324   -0.053976
  59 H     1.0000    0     1.008   12.580410    3.744459   -0.227342
  60 H     1.0000    0     1.008   17.116236    4.674785   -0.236720
  61 H     1.0000    0     1.008   19.029557    4.613749    3.866145
  62 H     1.0000    0     1.008   21.931612    7.451981    6.139251
  63 H     1.0000    0     1.008   26.462510    7.495756    5.197202
  64 H     1.0000    0     1.008   28.252586    4.631970    1.966047
  65 H     1.0000    0     1.008   28.987363    1.089414   -1.742043
  66 H     1.0000    0     1.008   28.479511   -2.230504   -4.992490
  67 H     1.0000    0     1.008   24.291041   -3.915081   -6.010686
  68 H     1.0000    0     1.008   20.488096   -2.406894   -3.794190
  69 H     1.0000    0     1.008   18.732121   -3.221995    0.305047
  70 H     1.0000    0     1.008   14.228164   -4.172950    0.266209
  71 H     1.0000    0     1.008    7.029295   -7.478953    0.042246
  72 H     1.0000    0     1.008    2.517976   -8.531773    0.029058
  73 H     1.0000    0     1.008   -2.515785   -8.533011   -0.000951
  74 H     1.0000    0     1.008   -7.027564   -7.482353   -0.019815
  75 H     1.0000    0     1.008  -10.320962   -4.701415   -0.051464
  76 H     1.0000    0     1.008   -9.214052    0.978534    0.042079
  77 H     1.0000    0     1.008  -12.579298    3.741650    0.207223
  78 H     1.0000    0     1.008  -17.114828    4.673376    0.217937
  79 H     1.0000    0     1.008  -19.038883    4.602167   -3.881024
  80 H     1.0000    0     1.008  -21.946363    7.435860   -6.152986
  81 H     1.0000    0     1.008  -26.474602    7.483409   -5.198492
  82 H     1.0000    0     1.008  -28.256609    4.628244   -1.955260
  83 H     1.0000    0     1.008  -28.982110    1.095933    1.764537
  84 H     1.0000    0     1.008  -28.465937   -2.214803    5.023014
  85 H     1.0000    0     1.008  -24.275117   -3.898038    6.033786
  86 H     1.0000    0     1.008  -20.478151   -2.397708    3.801744
  87 H     1.0000    0     1.008  -18.733437   -3.224437   -0.300093
  88 H     1.0000    0     1.008  -14.229539   -4.176641   -0.262755
  89 H     1.0000    0     1.008   -5.288319    0.480799   -0.015667



           ************************************************************
           *        Program running with 40 parallel MPI-processes    *
           *              working on a common directory               *
           ************************************************************
------------------------------------------------------------------------------
                   ___                                                        
                  /   \      - P O W E R E D   B Y -                         
                 /     \                                                     
                 |  |  |   _    _      __       _____    __    __             
                 |  |  |  | |  | |    /  \     |  _  \  |  |  /  |          
                  \  \/   | |  | |   /    \    | | | |  |  | /  /          
                 / \  \   | |__| |  /  /\  \   | |_| |  |  |/  /          
                |  |  |   |  __  | /  /__\  \  |    /   |      \           
                |  |  |   | |  | | |   __   |  |    \   |  |\   \          
                \     /   | |  | | |  |  |  |  | |\  \  |  | \   \       
                 \___/    |_|  |_| |__|  |__|  |_| \__\ |__|  \__/        
                                                                              
                      - O R C A' S   B I G   F R I E N D -                    
                                      &                                       
                       - I N T E G R A L  F E E D E R -                       
                                                                              
 v1 FN, 2020, v2 2021                                                         
------------------------------------------------------------------------------


Reading SHARK input file /dev/shm/slurm.malcolms.9693129/9693129/T1/T1_OPT.SHARKINP.tmp ... ok
----------------------
SHARK INTEGRAL PACKAGE
----------------------

Number of atoms                             ...     90
Number of basis functions                   ...    954
Number of shells                            ...    438
Maximum angular momentum                    ...      2
Integral batch strategy                     ... SHARK/LIBINT Hybrid
RI-J (if used) integral strategy            ... SPLIT-RIJ (Revised 2003 algorithm where possible)
Printlevel                                  ...      1
Contraction scheme used                     ... SEGMENTED contraction
Coulomb Range Separation                    ... NOT USED
Exchange Range Separation                   ... NOT USED
Finite Nucleus Model                        ... NOT USED
Auxiliary Coulomb fitting basis             ... AVAILABLE
   # of basis functions in Aux-J            ...   3118
   # of shells in Aux-J                     ...   1010
   Maximum angular momentum in Aux-J        ...      4
Auxiliary J/K fitting basis                 ... NOT available
Auxiliary Correlation fitting basis         ... NOT available
Auxiliary 'external' fitting basis          ... NOT available
Integral threshold                          ...     2.500000e-11
Primitive cut-off                           ...     2.500000e-12
Primitive pair pre-selection threshold      ...     2.500000e-12

Calculating pre-screening integrals         ... done (  0.0 sec) Dimension = 438
Organizing shell pair data                  ... done (  0.2 sec)
Shell pair information
Total number of shell pairs                 ...     96141
Shell pairs after pre-screening             ...     31919
Total number of primitive shell pairs       ...    355733
Primitive shell pairs kept                  ...     73708
          la=0 lb=0:   9542 shell pairs
          la=1 lb=0:  11839 shell pairs
          la=1 lb=1:   3799 shell pairs
          la=2 lb=0:   3870 shell pairs
          la=2 lb=1:   2465 shell pairs
          la=2 lb=2:    404 shell pairs

Calculating one electron integrals          ... done (  0.1 sec)
Calculating RI/J V-Matrix + Cholesky decomp.... done (  0.5 sec)
Calculating Nuclear repulsion               ... done (  0.0 sec) ENN=   5646.635618874261 Eh

SHARK setup successfully completed in   1.1 seconds

Maximum memory used throughout the entire GTOINT-calculation: 58.3 MB


           ************************************************************
           *        Program running with 40 parallel MPI-processes    *
           *              working on a common directory               *
           ************************************************************

Diagonalization of the overlap matrix:
Smallest eigenvalue                        ... 2.152e-04
Time for diagonalization                   ...    0.200 sec
Threshold for overlap eigenvalues          ... 1.000e-08
Number of eigenvalues below threshold      ... 0
Time for construction of square roots      ...    0.128 sec
Total time needed                          ...    0.335 sec

Time for model grid setup =    0.574 sec

Loading Hartree-Fock densities                     ... done
Calculating cut-offs                               ... done
Initializing the effective Hamiltonian             ... done
Setting up the integral package (SHARK)            ... done
Starting the Coulomb interaction                   ... done (   0.2 sec)
Reading the grid                                   ... done
Mapping shells                                     ... done
Starting the XC term evaluation                    ... done (   0.1 sec)
  promolecular density results
     # of electrons  =    373.956538769
     EX              =   -302.707600022
     EC              =    -12.618112751
     EX+EC           =   -315.325712773
Transforming the Hamiltonian                       ... done (   0.1 sec)
Diagonalizing the Hamiltonian                      ... done (   0.2 sec)
Back transforming the eigenvectors                 ... done (   0.0 sec)
Now organizing SCF variables                       ... done
-------------------
DFT GRID GENERATION
-------------------

General Integration Accuracy     IntAcc      ... 4.959
Radial Grid Type                 RadialGrid  ... OptM3 with GC (2021)
Angular Grid (max. ang.)         AngularGrid ... 6 (Lebedev-590)
Angular grid pruning method      GridPruning ... 4 (adaptive)
Weight generation scheme         WeightScheme... Becke
Basis function cutoff            BFCut       ... 1.0000e-11
Integration weight cutoff        WCut        ... 1.0000e-14
Angular grids for H and He will be reduced by one unit
Partially contracted basis set               ... off
Rotationally invariant grid construction     ... off

Total number of grid points                  ...  1079343
Total number of batches                      ...    16911
Average number of points per batch           ...       63
Average number of grid points per atom       ...    11993
Time for grid setup =   12.203 sec

--------------------
COSX GRID GENERATION
--------------------

GRIDX 1
-------
General Integration Accuracy     IntAcc      ... 4.020
Radial Grid Type                 RadialGrid  ... OptM3 with GC (2021)
Angular Grid (max. ang.)         AngularGrid ... 2 (Lebedev-110)
Angular grid pruning method      GridPruning ... 4 (adaptive)
Weight generation scheme         WeightScheme... Becke
Basis function cutoff            BFCut       ... 1.0000e-11
Integration weight cutoff        WCut        ... 1.0000e-14
Angular grids for H and He will be reduced by one unit
Partially contracted basis set               ... on
Rotationally invariant grid construction     ... off

Total number of grid points                  ...   122587
Total number of batches                      ...     1961
Average number of points per batch           ...       62
Average number of grid points per atom       ...     1362
UseSFitting                                  ... on

GRIDX 2
-------
General Integration Accuracy     IntAcc      ... 4.338
Radial Grid Type                 RadialGrid  ... OptM3 with GC (2021)
Angular Grid (max. ang.)         AngularGrid ... 3 (Lebedev-194)
Angular grid pruning method      GridPruning ... 4 (adaptive)
Weight generation scheme         WeightScheme... Becke
Basis function cutoff            BFCut       ... 1.0000e-11
Integration weight cutoff        WCut        ... 1.0000e-14
Angular grids for H and He will be reduced by one unit
Partially contracted basis set               ... on
Rotationally invariant grid construction     ... off

Total number of grid points                  ...   268116
Total number of batches                      ...     4237
Average number of points per batch           ...       63
Average number of grid points per atom       ...     2979
UseSFitting                                  ... on

GRIDX 3
-------
General Integration Accuracy     IntAcc      ... 4.871
Radial Grid Type                 RadialGrid  ... OptM3 with GC (2021)
Angular Grid (max. ang.)         AngularGrid ... 4 (Lebedev-302)
Angular grid pruning method      GridPruning ... 4 (adaptive)
Weight generation scheme         WeightScheme... Becke
Basis function cutoff            BFCut       ... 1.0000e-11
Integration weight cutoff        WCut        ... 1.0000e-14
Angular grids for H and He will be reduced by one unit
Partially contracted basis set               ... on
Rotationally invariant grid construction     ... off

Total number of grid points                  ...   494717
Total number of batches                      ...     7780
Average number of points per batch           ...       63
Average number of grid points per atom       ...     5497
UseSFitting                                  ... on

Time for X-Grid setup             =    5.834 sec

--------------
SCF ITERATIONS
--------------
ITER       Energy         Delta-E        Max-DP      RMS-DP      [F,P]     Damp
               ***  Starting incremental Fock matrix formation  ***
  0  -2219.8622360315   0.000000000000 0.08003895  0.00114651  0.2148696 0.7000
  1  -2220.2384175773  -0.376181545821 0.04852837  0.00081110  0.0901587 0.7000
                               ***Turning on DIIS***
  2  -2220.4153126187  -0.176895041441 0.08446348  0.00153802  0.0317981 0.0000
  3  -2220.6865634904  -0.271250871687 0.03257936  0.00044756  0.0451307 0.0000
  4  -2220.7381647058  -0.051601215373 0.01367949  0.00013214  0.0182392 0.0000
  5  -2220.7411036400  -0.002938934225 0.00635288  0.00004876  0.0113014 0.0000
                      *** Initiating the SOSCF procedure ***
                           *** Shutting down DIIS ***
                      *** Re-Reading the Fockian *** 
                      *** Removing any level shift *** 
ITER      Energy       Delta-E        Grad      Rot      Max-DP    RMS-DP
  6  -2220.74143949  -0.0003358463  0.000603  0.000603  0.001848  0.000018
               *** Restarting incremental Fock matrix formation ***
  7  -2220.74147434  -0.0000348557  0.000482  0.004470  0.002443  0.000019
  8  -2220.74146529   0.0000090490  0.000642  0.001757  0.001785  0.000012
  9  -2220.74149271  -0.0000274215  0.000090  0.000663  0.000255  0.000003
 10  -2220.74149262   0.0000000923  0.000086  0.000186  0.000209  0.000002
 11  -2220.74149309  -0.0000004644  0.000029  0.000142  0.000069  0.000001
 12  -2220.74149309  -0.0000000070  0.000028  0.000070  0.000057  0.000001
 13  -2220.74149308   0.0000000126  0.000008  0.000045  0.000048  0.000000
 14  -2220.74149307   0.0000000135  0.000012  0.000020  0.000031  0.000000
                  ***Gradient check signals convergence***
              ***Rediagonalizing the Fockian in SOSCF/NRSCF***

               *****************************************************
               *                     SUCCESS                       *
               *           SCF CONVERGED AFTER  15 CYCLES          *
               *****************************************************

Old exchange energy                            =    -77.067772547 Eh
New exchange energy                            =    -77.067819656 Eh
Exchange energy change after final integration =     -0.000047110 Eh
Total energy after final integration           =  -2220.741540181 Eh
Final COS-X integration done in                =    17.027 sec
Total Energy       :        -2220.74154018 Eh          -60429.44948 eV
  Last Energy change         ...   -3.7862e-09  Tolerance :   1.0000e-08
  Last MAX-Density change    ...    5.7732e-15  Tolerance :   1.0000e-07
             **** THE GBW FILE WAS UPDATED (/dev/shm/slurm.malcolms.9693129/9693129/T1/T1_OPT.gbw) ****
             **** DENSITY /dev/shm/slurm.malcolms.9693129/9693129/T1/T1_OPT.scfp WAS UPDATED ****
             **** ENERGY FILE WAS UPDATED (/dev/shm/slurm.malcolms.9693129/9693129/T1/T1_OPT.en.tmp) ****
             **** THE GBW FILE WAS UPDATED (/dev/shm/slurm.malcolms.9693129/9693129/T1/T1_OPT.gbw) ****
             **** DENSITY /dev/shm/slurm.malcolms.9693129/9693129/T1/T1_OPT.scfp WAS UPDATED ****
----------------
ORBITAL ENERGIES
----------------

  NO   OCC          E(Eh)            E(eV) 
   0   2.0000     -19.212074      -522.7871 
   1   2.0000     -14.451427      -393.2433 
   2   2.0000     -14.451423      -393.2432 
   3   2.0000     -10.326071      -280.9867 
   4   2.0000     -10.293049      -280.0881 
   5   2.0000     -10.293046      -280.0880 
   6   2.0000     -10.275699      -279.6160 
   7   2.0000     -10.275691      -279.6158 
   8   2.0000     -10.275579      -279.6127 
   9   2.0000     -10.275575      -279.6126 
  10   2.0000     -10.262953      -279.2691 
  11   2.0000     -10.262946      -279.2689 
  12   2.0000     -10.262678      -279.2617 
  13   2.0000     -10.262375      -279.2534 
  14   2.0000     -10.257799      -279.1289 
  15   2.0000     -10.257792      -279.1287 
  16   2.0000     -10.257427      -279.1188 
  17   2.0000     -10.257424      -279.1187 
  18   2.0000     -10.257065      -279.1089 
  19   2.0000     -10.257044      -279.1083 
  20   2.0000     -10.256450      -279.0922 
  21   2.0000     -10.256346      -279.0894 
  22   2.0000     -10.252379      -278.9814 
  23   2.0000     -10.252372      -278.9812 
  24   2.0000     -10.251999      -278.9711 
  25   2.0000     -10.251997      -278.9710 
  26   2.0000     -10.251633      -278.9611 
  27   2.0000     -10.251627      -278.9609 
  28   2.0000     -10.251515      -278.9579 
  29   2.0000     -10.251512      -278.9578 
  30   2.0000     -10.250912      -278.9415 
  31   2.0000     -10.250905      -278.9413 
  32   2.0000     -10.250531      -278.9311 
  33   2.0000     -10.250527      -278.9310 
  34   2.0000     -10.250019      -278.9172 
  35   2.0000     -10.249994      -278.9165 
  36   2.0000     -10.238180      -278.5950 
  37   2.0000     -10.238174      -278.5949 
  38   2.0000     -10.238102      -278.5929 
  39   2.0000     -10.238095      -278.5927 
  40   2.0000     -10.237977      -278.5895 
  41   2.0000     -10.237976      -278.5895 
  42   2.0000     -10.237785      -278.5843 
  43   2.0000     -10.237778      -278.5841 
  44   2.0000     -10.237605      -278.5794 
  45   2.0000     -10.237603      -278.5793 
  46   2.0000     -10.237397      -278.5737 
  47   2.0000     -10.237396      -278.5737 
  48   2.0000     -10.236227      -278.5419 
  49   2.0000     -10.236222      -278.5418 
  50   2.0000     -10.235900      -278.5330 
  51   2.0000     -10.235896      -278.5329 
  52   2.0000     -10.230282      -278.3801 
  53   2.0000     -10.230278      -278.3800 
  54   2.0000     -10.230018      -278.3730 
  55   2.0000     -10.230017      -278.3729 
  56   2.0000      -1.061355       -28.8809 
  57   2.0000      -1.031806       -28.0769 
  58   2.0000      -1.031806       -28.0769 
  59   2.0000      -0.928947       -25.2779 
  60   2.0000      -0.907537       -24.6953 
  61   2.0000      -0.907205       -24.6863 
  62   2.0000      -0.893816       -24.3220 
  63   2.0000      -0.877937       -23.8899 
  64   2.0000      -0.876275       -23.8447 
  65   2.0000      -0.875125       -23.8133 
  66   2.0000      -0.875121       -23.8133 
  67   2.0000      -0.858884       -23.3714 
  68   2.0000      -0.834457       -22.7067 
  69   2.0000      -0.826697       -22.4956 
  70   2.0000      -0.809943       -22.0397 
  71   2.0000      -0.809070       -22.0159 
  72   2.0000      -0.795306       -21.6414 
  73   2.0000      -0.788063       -21.4443 
  74   2.0000      -0.787913       -21.4402 
  75   2.0000      -0.786305       -21.3965 
  76   2.0000      -0.782054       -21.2808 
  77   2.0000      -0.773622       -21.0513 
  78   2.0000      -0.773497       -21.0479 
  79   2.0000      -0.767485       -20.8843 
  80   2.0000      -0.753963       -20.5164 
  81   2.0000      -0.739508       -20.1230 
  82   2.0000      -0.739474       -20.1221 
  83   2.0000      -0.738414       -20.0933 
  84   2.0000      -0.718037       -19.5388 
  85   2.0000      -0.703839       -19.1524 
  86   2.0000      -0.693777       -18.8786 
  87   2.0000      -0.676426       -18.4065 
  88   2.0000      -0.663677       -18.0596 
  89   2.0000      -0.655284       -17.8312 
  90   2.0000      -0.653710       -17.7884 
  91   2.0000      -0.645759       -17.5720 
  92   2.0000      -0.639752       -17.4085 
  93   2.0000      -0.629421       -17.1274 
  94   2.0000      -0.625985       -17.0339 
  95   2.0000      -0.623272       -16.9601 
  96   2.0000      -0.621662       -16.9163 
  97   2.0000      -0.608133       -16.5481 
  98   2.0000      -0.603898       -16.4329 
  99   2.0000      -0.595611       -16.2074 
 100   2.0000      -0.595245       -16.1974 
 101   2.0000      -0.594518       -16.1777 
 102   2.0000      -0.586681       -15.9644 
 103   2.0000      -0.574094       -15.6219 
 104   2.0000      -0.565089       -15.3768 
 105   2.0000      -0.564631       -15.3644 
 106   2.0000      -0.545073       -14.8322 
 107   2.0000      -0.542480       -14.7616 
 108   2.0000      -0.540244       -14.7008 
 109   2.0000      -0.535959       -14.5842 
 110   2.0000      -0.531565       -14.4646 
 111   2.0000      -0.528585       -14.3835 
 112   2.0000      -0.521998       -14.2043 
 113   2.0000      -0.511844       -13.9280 
 114   2.0000      -0.510837       -13.9006 
 115   2.0000      -0.493636       -13.4325 
 116   2.0000      -0.493331       -13.4242 
 117   2.0000      -0.485956       -13.2235 
 118   2.0000      -0.485110       -13.2005 
 119   2.0000      -0.477967       -13.0061 
 120   2.0000      -0.475284       -12.9331 
 121   2.0000      -0.474798       -12.9199 
 122   2.0000      -0.473085       -12.8733 
 123   2.0000      -0.472085       -12.8461 
 124   2.0000      -0.470009       -12.7896 
 125   2.0000      -0.464846       -12.6491 
 126   2.0000      -0.464582       -12.6419 
 127   2.0000      -0.460470       -12.5300 
 128   2.0000      -0.458677       -12.4812 
 129   2.0000      -0.457351       -12.4452 
 130   2.0000      -0.456536       -12.4230 
 131   2.0000      -0.455802       -12.4030 
 132   2.0000      -0.455266       -12.3884 
 133   2.0000      -0.452832       -12.3222 
 134   2.0000      -0.448257       -12.1977 
 135   2.0000      -0.445936       -12.1345 
 136   2.0000      -0.445762       -12.1298 
 137   2.0000      -0.444510       -12.0957 
 138   2.0000      -0.442775       -12.0485 
 139   2.0000      -0.438752       -11.9391 
 140   2.0000      -0.434278       -11.8173 
 141   2.0000      -0.433892       -11.8068 
 142   2.0000      -0.420964       -11.4550 
 143   2.0000      -0.414704       -11.2847 
 144   2.0000      -0.413192       -11.2435 
 145   2.0000      -0.412100       -11.2138 
 146   2.0000      -0.407197       -11.0804 
 147   2.0000      -0.401565       -10.9271 
 148   2.0000      -0.400871       -10.9083 
 149   2.0000      -0.397602       -10.8193 
 150   2.0000      -0.390050       -10.6138 
 151   2.0000      -0.388863       -10.5815 
 152   2.0000      -0.382643       -10.4123 
 153   2.0000      -0.382506       -10.4085 
 154   2.0000      -0.381262       -10.3747 
 155   2.0000      -0.381204       -10.3731 
 156   2.0000      -0.377550       -10.2737 
 157   2.0000      -0.377118       -10.2619 
 158   2.0000      -0.375650       -10.2219 
 159   2.0000      -0.373109       -10.1528 
 160   2.0000      -0.364995        -9.9320 
 161   2.0000      -0.364938        -9.9305 
 162   2.0000      -0.360695        -9.8150 
 163   2.0000      -0.359438        -9.7808 
 164   2.0000      -0.355785        -9.6814 
 165   2.0000      -0.353075        -9.6077 
 166   2.0000      -0.353058        -9.6072 
 167   2.0000      -0.351936        -9.5767 
 168   2.0000      -0.347690        -9.4611 
 169   2.0000      -0.329830        -8.9751 
 170   2.0000      -0.309893        -8.4326 
 171   2.0000      -0.302063        -8.2195 
 172   2.0000      -0.300637        -8.1808 
 173   2.0000      -0.293204        -7.9785 
 174   2.0000      -0.289750        -7.8845 
[...]
   lowest eigenvalues of A:
    E[ 0] =     0.0602496501 (change=   0.0602496501)  1.639 eV
    E[ 1] =     0.0845077409 (change=   0.0845077409)  2.300 eV
    E[ 2] =     0.0898490345 (change=   0.0898490345)  2.445 eV
    E[ 3] =     0.1010229228 (change=   0.1010229228)  2.749 eV
    E[ 4] =     0.1042659293 (change=   0.1042659293)  2.837 eV
   Lowest Energy          :     0.060249650088
   Maximum Energy change  :     0.104265929340 (vector 4)
   Maximum residual norm  :     0.001119495950
   Repeating orthogonalization (< 0| 0>=1.867494e-06)
   Repeating orthogonalization (< 1| 7>=2.090877e-05)
   Repeating orthogonalization (< 2|15>=2.689675e-01)
   Repeating orthogonalization (< 3|15>=7.320606e-01)
   Repeating orthogonalization (< 4|16>=8.605754e-01)
Storing the current CI vectors                 ... o.k.

                       ****Iteration    1****

Building the sigma vectors                     ...    Time for densities:            0.167
Average shell size            =     8.236 au
Total number of shells        =       438    
Av no of R-interacting shells =       179 
Av no of P-interacting shells =       438 
Av no of primary shells       =       100 
Av no of secondary shells     =       438 
Av no of tertiary shells      =       438 
Integration Timings:
Total Time                    =     4.4 sec
Basis fcn evaluation          =     0.0 sec
Density evaluation            =     0.2 sec
Integral evaluation           =     3.9 sec
K(P) evaluation               =     0.2 sec
   Time for K (COSX):             4.669
   Time for XC-Integration:       0.585
   Time for Sigma-Completion:     0.107
o.k.
Building the Hamiltonian                       ... o.k.
Diagonalizing the Hamiltonian                  ... o.k.
   Size of expansion space: 20
   lowest eigenvalues of A:
    E[ 0] =     0.0535611870 (change=  -0.0066884631)  1.457 eV
    E[ 1] =     0.0776289738 (change=  -0.0068787672)  2.112 eV
    E[ 2] =     0.0840387353 (change=  -0.0058102992)  2.287 eV
    E[ 3] =     0.0981783176 (change=  -0.0028446052)  2.672 eV
    E[ 4] =     0.0984425122 (change=  -0.0058234172)  2.679 eV
   Lowest Energy          :     0.053561186975
   Maximum Energy change  :     0.006878767160 (vector 1)
   Maximum residual norm  :     0.000099143867
   Repeating orthogonalization (< 0|15>=2.468878e-01)
   Repeating orthogonalization (< 1|16>=2.915576e-01)
   Repeating orthogonalization (< 2|20>=4.233601e-01)
   Repeating orthogonalization (< 3|21>=8.268047e-01)
   Repeating orthogonalization (< 4|22>=7.536932e-01)
Storing the current CI vectors                 ... o.k.

                       ****Iteration    2****

Building the sigma vectors                     ...    Time for densities:            0.166
Average shell size            =     8.236 au
Total number of shells        =       438    
Av no of R-interacting shells =       179 
Av no of P-interacting shells =       438 
Av no of primary shells       =       100 
Av no of secondary shells     =       438 
Av no of tertiary shells      =       438 
Integration Timings:
Total Time                    =     4.4 sec
Basis fcn evaluation          =     0.0 sec
Density evaluation            =     0.2 sec
Integral evaluation           =     3.9 sec
K(P) evaluation               =     0.2 sec
   Time for K (COSX):             4.666
   Time for XC-Integration:       0.601
   Time for Sigma-Completion:     0.108
o.k.
Building the Hamiltonian                       ... o.k.
Diagonalizing the Hamiltonian                  ... o.k.
   Size of expansion space: 25
   lowest eigenvalues of A:
    E[ 0] =     0.0532796191 (change=  -0.0002815678)  1.450 eV
    E[ 1] =     0.0771782957 (change=  -0.0004506781)  2.100 eV
    E[ 2] =     0.0835275294 (change=  -0.0005112059)  2.273 eV
    E[ 3] =     0.0975896069 (change=  -0.0005887107)  2.655 eV
    E[ 4] =     0.0980718696 (change=  -0.0003706425)  2.669 eV
   Lowest Energy          :     0.053279619133
   Maximum Energy change  :     0.000588710747 (vector 3)
   Maximum residual norm  :     0.000006824124
   Repeating orthogonalization (< 0|15>=2.270941e-01)
   Repeating orthogonalization (< 1|23>=1.095834e-01)
   Repeating orthogonalization (< 2|25>=2.757701e-01)
   Repeating orthogonalization (< 3|26>=8.265708e-01)
   Repeating orthogonalization (< 4|27>=8.064998e-01)
Storing the current CI vectors                 ... o.k.

                       ****Iteration    3****

Building the sigma vectors                     ...    Time for densities:            0.166
Average shell size            =     8.236 au
Total number of shells        =       438    
Av no of R-interacting shells =       179 
Av no of P-interacting shells =       438 
Av no of primary shells       =       100 
Av no of secondary shells     =       438 
Av no of tertiary shells      =       438 
Integration Timings:
Total Time                    =     4.4 sec
Basis fcn evaluation          =     0.0 sec
Density evaluation            =     0.2 sec
Integral evaluation           =     3.9 sec
K(P) evaluation               =     0.2 sec
   Time for K (COSX):             4.694
   Time for XC-Integration:       0.607
   Time for Sigma-Completion:     0.107
o.k.
Building the Hamiltonian                       ... o.k.
Diagonalizing the Hamiltonian                  ... o.k.
   Size of expansion space: 30
   lowest eigenvalues of A:
    E[ 0] =     0.0532666879 (change=  -0.0000129312)  1.449 eV
    E[ 1] =     0.0771540613 (change=  -0.0000242344)  2.099 eV
    E[ 2] =     0.0834900284 (change=  -0.0000375010)  2.272 eV
    E[ 3] =     0.0975449347 (change=  -0.0000446722)  2.654 eV
    E[ 4] =     0.0980316940 (change=  -0.0000401756)  2.668 eV
   Lowest Energy          :     0.053266687896
   Maximum Energy change  :     0.000044672220 (vector 3)
   Maximum residual norm  :     0.000000880140
   Repeating orthogonalization (< 0|20>=2.406176e-01)
   Repeating orthogonalization (< 1|21>=1.831679e-01)
   Repeating orthogonalization (< 2|30>=2.800795e-01)
   Repeating orthogonalization (< 3|31>=8.573572e-01)
   Repeating orthogonalization (< 4|32>=7.570335e-01)
Storing the current CI vectors                 ... o.k.

                       ****Iteration    4****

Building the sigma vectors                     ...    Time for densities:            0.167
Average shell size            =     8.236 au
Total number of shells        =       438    
Av no of R-interacting shells =       179 
Av no of P-interacting shells =       438 
Av no of primary shells       =       100 
Av no of secondary shells     =       438 
Av no of tertiary shells      =       438 
Integration Timings:
Total Time                    =     4.4 sec
Basis fcn evaluation          =     0.0 sec
Density evaluation            =     0.2 sec
Integral evaluation           =     3.9 sec
K(P) evaluation               =     0.2 sec
   Time for K (COSX):             4.698
   Time for XC-Integration:       0.645
   Time for Sigma-Completion:     0.121
o.k.
Building the Hamiltonian                       ... o.k.
Diagonalizing the Hamiltonian                  ... o.k.
   Size of expansion space: 35
   lowest eigenvalues of A:
    E[ 0] =     0.0532664763 (change=  -0.0000002116)  1.449 eV
    E[ 1] =     0.0771523284 (change=  -0.0000017329)  2.099 eV
    E[ 2] =     0.0834882893 (change=  -0.0000017391)  2.272 eV
    E[ 3] =     0.0975369880 (change=  -0.0000079467)  2.654 eV
    E[ 4] =     0.0980296233 (change=  -0.0000020707)  2.667 eV
   Lowest Energy          :     0.053266476281
   Maximum Energy change  :     0.000007946690 (vector 3)
   Maximum residual norm  :     0.000000180536

      *** CONVERGENCE OF RESIDUAL NORM REACHED ***

Storing the converged CI vectors               ... /dev/shm/slurm.malcolms.9693129/9693129/T1/T1_OPT.cis3

                 *** DAVIDSON DONE ***

------------------------------------
TD-DFT/TDA EXCITED STATES (TRIPLETS)
------------------------------------

the weight of the individual excitations are printed if larger than 1.0e-02

STATE  1:  E=   0.053266 au      1.449 eV    11690.6 cm**-1 <S**2> =   2.000000
   177a -> 187a  :     0.010360 (c= -0.10178203)
   181a -> 189a  :     0.021834 (c= -0.14776450)
   184a -> 187a  :     0.110999 (c=  0.33316547)
   185a -> 189a  :     0.012185 (c= -0.11038726)
   186a -> 187a  :     0.801106 (c= -0.89504528)
   186a -> 188a  :     0.011065 (c=  0.10518819)

STATE  2:  E=   0.077152 au      2.099 eV    16933.0 cm**-1 <S**2> =   2.000000
   181a -> 187a  :     0.186817 (c= -0.43222356)
   181a -> 188a  :     0.034351 (c=  0.18533975)
   184a -> 189a  :     0.014409 (c=  0.12003699)
   185a -> 187a  :     0.376662 (c= -0.61372781)
   185a -> 188a  :     0.037530 (c=  0.19372781)
   186a -> 189a  :     0.286400 (c= -0.53516358)

STATE  3:  E=   0.083488 au      2.272 eV    18323.6 cm**-1 <S**2> =   2.000000
   177a -> 187a  :     0.023582 (c= -0.15356468)
   181a -> 189a  :     0.037421 (c=  0.19344487)
   184a -> 187a  :     0.018984 (c=  0.13778162)
   184a -> 188a  :     0.070505 (c=  0.26552859)
   185a -> 189a  :     0.037594 (c=  0.19389108)
   186a -> 187a  :     0.012018 (c= -0.10962674)
   186a -> 188a  :     0.768235 (c= -0.87649008)

STATE  4:  E=   0.097537 au      2.654 eV    21406.9 cm**-1 <S**2> =   2.000000
   181a -> 187a  :     0.014902 (c= -0.12207396)
   181a -> 188a  :     0.066740 (c=  0.25834075)
   184a -> 189a  :     0.043162 (c=  0.20775532)
   185a -> 187a  :     0.562807 (c=  0.75020496)
   185a -> 188a  :     0.047625 (c=  0.21823060)
   186a -> 189a  :     0.225404 (c= -0.47476698)

STATE  5:  E=   0.098030 au      2.668 eV    21515.0 cm**-1 <S**2> =   2.000000
   177a -> 187a  :     0.029626 (c= -0.17212347)
   184a -> 187a  :     0.737353 (c=  0.85869264)
   184a -> 188a  :     0.022774 (c= -0.15091183)
   185a -> 189a  :     0.030627 (c=  0.17500563)
   186a -> 187a  :     0.126976 (c=  0.35633656)
   186a -> 188a  :     0.012256 (c=  0.11070547)
   186a -> 192a  :     0.017713 (c=  0.13309100)


-----------------------------
TD-DFT/TDA-EXCITATION SPECTRA
-----------------------------

Center of mass = (  0.0001, -0.0080,  0.0015)
Calculating the Dipole integrals                  ... done
Transforming integrals                            ... done
Calculating the Linear Momentum integrals         ... done
Transforming integrals                            ... done
Calculating angular momentum integrals            ... done
Transforming integrals                            ... done

-----------------------------------------------------------------------------
         ABSORPTION SPECTRUM VIA TRANSITION ELECTRIC DIPOLE MOMENTS
-----------------------------------------------------------------------------
State   Energy    Wavelength  fosc         T2        TX        TY        TZ  
        (cm-1)      (nm)                 (au**2)    (au)      (au)      (au) 
-----------------------------------------------------------------------------
   1   17406.5    574.5   1.071570716  20.26680  -4.50184  -0.00018  -0.01410
   2   21082.7    474.3   0.027668869   0.43206  -0.00007   0.65731  -0.00078
   3   22052.8    453.5   1.150921371  17.18132  -4.14501  -0.00018  -0.01396
   4   23867.4    419.0   1.081208227  14.91350  -3.86177  -0.00019  -0.01459
   5   25100.5    398.4   0.000021661   0.00028   0.00032  -0.01680  -0.00133
   6   11690.6    855.4   spin forbidden (mult=3)
   7   16933.0    590.6   spin forbidden (mult=3)
   8   18323.6    545.7   spin forbidden (mult=3)
   9   21406.9    467.1   spin forbidden (mult=3)
  10   21515.0    464.8   spin forbidden (mult=3)

-----------------------------------------------------------------------------
         ABSORPTION SPECTRUM VIA TRANSITION VELOCITY DIPOLE MOMENTS
-----------------------------------------------------------------------------
State   Energy    Wavelength   fosc        P2         PX        PY        PZ  
        (cm-1)      (nm)                 (au**2)     (au)      (au)      (au) 
-----------------------------------------------------------------------------
   1   17406.5    574.5   0.567437572   0.06751   0.25982   0.00001   0.00095
   2   21082.7    474.3   0.000010352   0.00000   0.00000   0.00122  -0.00001
   3   22052.8    453.5   0.713354195   0.10752   0.32790   0.00001   0.00081
   4   23867.4    419.0   0.714394084   0.11653   0.34137   0.00001   0.00136
   5   25100.5    398.4   0.000003678   0.00000  -0.00001  -0.00075  -0.00026
   6   11690.6    855.4   spin forbidden (mult=3)
   7   16933.0    590.6   spin forbidden (mult=3)
   8   18323.6    545.7   spin forbidden (mult=3)
   9   21406.9    467.1   spin forbidden (mult=3)
  10   21515.0    464.8   spin forbidden (mult=3)

-------------------------------------------------------------------
                             CD SPECTRUM
-------------------------------------------------------------------
State  Energy     Wavelength     R         MX        MY        MZ   
       (cm-1)       (nm)     (1e40*cgs)   (au)      (au)      (au)  
-------------------------------------------------------------------
   1   17406.5    574.5    -21.79903   0.01288  -0.00101  -0.83201
   2   21082.7    474.3      0.21232  -0.00000   0.00069   0.00003
   3   22052.8    453.5    -55.55301   0.03034  -0.00061  -0.56757
   4   23867.4    419.0     10.28870  -0.00220  -0.00112  -0.91336
   5   25100.5    398.4     -0.17779  -0.00063   0.02268  -0.00306
   6   11690.6    855.4 spin forbidden
   7   16933.0    590.6 spin forbidden
   8   18323.6    545.7 spin forbidden
   9   21406.9    467.1 spin forbidden
  10   21515.0    464.8 spin forbidden

-------------------------------------------------------------------
         CD SPECTRUM VIA TRANSITION VELOCITY DIPOLE MOMENTS        
-------------------------------------------------------------------
State  Energy     Wavelength     R         MX        MY        MZ   
       (cm-1)       (nm)     (1e40*cgs)   (au)      (au)      (au)  
-------------------------------------------------------------------
   1   17406.5    574.5     15.20941   0.01288  -0.00101  -0.83201
   2   21082.7    474.3      0.00411  -0.00000   0.00069   0.00003
   3   22052.8    453.5     44.51405   0.03034  -0.00061  -0.56757
   4   23867.4    419.0     -8.64150  -0.00220  -0.00112  -0.91336
   5   25100.5    398.4     -0.06668  -0.00063   0.02268  -0.00306
   6   11690.6    855.4 spin forbidden
   7   16933.0    590.6 spin forbidden
   8   18323.6    545.7 spin forbidden
   9   21406.9    467.1 spin forbidden
  10   21515.0    464.8 spin forbidden

Total run time:      103.461 sec

           *** ORCA-CIS/TD-DFT FINISHED WITHOUT ERROR ***

Maximum memory used throughout the entire CIS-calculation: 526.9 MB

-----------------------
CIS/TD-DFT TOTAL ENERGY
-----------------------

    E(SCF)  =  -2220.750535626 Eh
    DE(CIS) =      0.053266476 Eh (Triplet root  1)
    ----------------------------- ---------
    E(tot)  =  -2220.697269150 Eh



-------------------------------------------------------------------------------
                          DFT DISPERSION CORRECTION                            
                                                                               
                              DFTD3 V3.1  Rev 1                                
                          USING Becke-Johnson damping                          
-------------------------------------------------------------------------------
-------------------------   ----------------
Dispersion correction           -0.121873170
-------------------------   ----------------


-------------------------   --------------------
FINAL SINGLE POINT ENERGY     -2220.819142319991
-------------------------   --------------------

                                *** OPTIMIZATION RUN DONE ***

                            ***************************************
                            *     ORCA property calculations      *
                            ***************************************

                                    ---------------------
                                    Active property flags
                                    ---------------------
   (+) Dipole Moment


------------------------------------------------------------------------------
                       ORCA ELECTRIC PROPERTIES CALCULATION
------------------------------------------------------------------------------

Dipole Moment Calculation                       ... on
Quadrupole Moment Calculation                   ... off
Polarizability Calculation                      ... off
GBWName                                         ... /dev/shm/slurm.malcolms.9693129/9693129/T1/T1_OPT.gbw
Electron density                                ... /dev/shm/slurm.malcolms.9693129/9693129/T1/T1_OPT.scfp
The origin for moment calculation is the CENTER OF MASS  = ( 0.000102, -0.007973  0.001524)

-------------
DIPOLE MOMENT
-------------
                                X             Y             Z
Electronic contribution:     -0.00004      -0.19549      -0.00104
Nuclear contribution   :      0.00007      -1.14499       0.00291
                        -----------------------------------------
Total Dipole Moment    :      0.00003      -1.34047       0.00187
                        -----------------------------------------
Magnitude (a.u.)       :      1.34047
Magnitude (Debye)      :      3.40721



--------------------
Rotational spectrum 
--------------------
 
Rotational constants in cm-1:     0.005087     0.000249     0.000244 
Rotational constants in MHz :   152.512333     7.455856     7.308449 

 Dipole components along the rotational axes: 
x,y,z [a.u.] :     0.000012    -1.340474     0.000229 
x,y,z [Debye]:     0.000032    -3.407213     0.000581 

 

                        *** CIS RELAXED DENSITY ***

------------------------------------------------------------------------------
                       ORCA ELECTRIC PROPERTIES CALCULATION
------------------------------------------------------------------------------

Dipole Moment Calculation                       ... on
Quadrupole Moment Calculation                   ... off
Polarizability Calculation                      ... off
GBWName                                         ... /dev/shm/slurm.malcolms.9693129/9693129/T1/T1_OPT.gbw
Electron density                                ... /dev/shm/slurm.malcolms.9693129/9693129/T1/T1_OPT.cisp
The origin for moment calculation is the CENTER OF MASS  = ( 0.000102, -0.007973  0.001524)

-------------
DIPOLE MOMENT
-------------
                                X             Y             Z
Electronic contribution:      0.00005      -0.04194      -0.00117
Nuclear contribution   :      0.00007      -1.14499       0.00291
                        -----------------------------------------
Total Dipole Moment    :      0.00012      -1.18692       0.00174
                        -----------------------------------------
Magnitude (a.u.)       :      1.18692
Magnitude (Debye)      :      3.01692



--------------------
Rotational spectrum 
--------------------
 
Rotational constants in cm-1:     0.005087     0.000249     0.000244 
Rotational constants in MHz :   152.512333     7.455856     7.308449 

 Dipole components along the rotational axes: 
x,y,z [a.u.] :    -0.000082    -1.186924     0.000287 
x,y,z [Debye]:    -0.000208    -3.016920     0.000729 

 

Timings for individual modules:

Sum of individual times         ...     1813.572 sec (=  30.226 min)
GTO integral calculation        ...       15.435 sec (=   0.257 min)   0.9 %
SCF iterations                  ...      703.283 sec (=  11.721 min)  38.8 %
CIS module                      ...      512.486 sec (=   8.541 min)  28.3 %
SCF Gradient evaluation         ...      580.347 sec (=   9.672 min)  32.0 %
Geometry relaxation             ...        2.022 sec (=   0.034 min)   0.1 %
                             ****ORCA TERMINATED NORMALLY****
TOTAL RUN TIME: 0 days 0 hours 30 minutes 23 seconds 497 msec
