
                                 *****************
                                 * O   R   C   A *
                                 *****************

                                            #,                                       
                                            ###                                      
                                            ####                                     
                                            #####                                    
                                            ######                                   
                                           ########,                                 
                                     ,,################,,,,,                         
                               ,,#################################,,                 
                          ,,##########################################,,             
                       ,#########################################, ''#####,          
                    ,#############################################,,   '####,        
                  ,##################################################,,,,####,       
                ,###########''''           ''''###############################       
              ,#####''   ,,,,##########,,,,          '''####'''          '####       
            ,##' ,,,,###########################,,,                        '##       
           ' ,,###''''                  '''############,,,                           
         ,,##''                                '''############,,,,        ,,,,,,###''
      ,#''                                            '''#######################'''  
     '                                                          ''''####''''         
             ,#######,   #######,   ,#######,      ##                                
            ,#'     '#,  ##    ##  ,#'     '#,    #''#        ######   ,####,        
            ##       ##  ##   ,#'  ##            #'  '#       #        #'  '#        
            ##       ##  #######   ##           ,######,      #####,   #    #        
            '#,     ,#'  ##    ##  '#,     ,#' ,#      #,         ##   #,  ,#        
             '#######'   ##     ##  '#######'  #'      '#     #####' # '####'        



                  #######################################################
                  #                        -***-                        #
                  #          Department of theory and spectroscopy      #
                  #    Directorship and core code : Frank Neese         #
                  #        Max Planck Institute fuer Kohlenforschung    #
                  #                Kaiser Wilhelm Platz 1               #
                  #                 D-45470 Muelheim/Ruhr               #
                  #                      Germany                        #
                  #                                                     #
                  #                  All rights reserved                #
                  #                        -***-                        #
                  #######################################################


                         Program Version 5.0.3 -  RELEASE  -


 With contributions from (in alphabetic order):
   Daniel Aravena         : Magnetic Suceptibility
   Michael Atanasov       : Ab Initio Ligand Field Theory (pilot matlab implementation)
   Alexander A. Auer      : GIAO ZORA, VPT2 properties, NMR spectrum
   Ute Becker             : Parallelization
   Giovanni Bistoni       : ED, misc. LED, open-shell LED, HFLD
   Martin Brehm           : Molecular dynamics
   Dmytro Bykov           : SCF Hessian
   Vijay G. Chilkuri      : MRCI spin determinant printing, contributions to CSF-ICE
   Dipayan Datta          : RHF DLPNO-CCSD density
   Achintya Kumar Dutta   : EOM-CC, STEOM-CC
   Dmitry Ganyushin       : Spin-Orbit,Spin-Spin,Magnetic field MRCI
   Miquel Garcia          : C-PCM and meta-GGA Hessian, CC/C-PCM, Gaussian charge scheme
   Yang Guo               : DLPNO-NEVPT2, F12-NEVPT2, CIM, IAO-localization
   Andreas Hansen         : Spin unrestricted coupled pair/coupled cluster methods
   Benjamin Helmich-Paris : MC-RPA, TRAH-SCF, COSX integrals
   Lee Huntington         : MR-EOM, pCC
   Robert Izsak           : Overlap fitted RIJCOSX, COSX-SCS-MP3, EOM
   Marcus Kettner         : VPT2
   Christian Kollmar      : KDIIS, OOCD, Brueckner-CCSD(T), CCSD density, CASPT2, CASPT2-K
   Simone Kossmann        : Meta GGA functionals, TD-DFT gradient, OOMP2, MP2 Hessian
   Martin Krupicka        : Initial AUTO-CI
   Lucas Lang             : DCDCAS
   Marvin Lechner         : AUTO-CI (C++ implementation), FIC-MRCC
   Dagmar Lenk            : GEPOL surface, SMD
   Dimitrios Liakos       : Extrapolation schemes; Compound Job, initial MDCI parallelization
   Dimitrios Manganas     : Further ROCIS development; embedding schemes
   Dimitrios Pantazis     : SARC Basis sets
   Anastasios Papadopoulos: AUTO-CI, single reference methods and gradients
   Taras Petrenko         : DFT Hessian,TD-DFT gradient, ASA, ECA, R-Raman, ABS, FL, XAS/XES, NRVS
   Peter Pinski           : DLPNO-MP2, DLPNO-MP2 Gradient
   Christoph Reimann      : Effective Core Potentials
   Marius Retegan         : Local ZFS, SOC
   Christoph Riplinger    : Optimizer, TS searches, QM/MM, DLPNO-CCSD(T), (RO)-DLPNO pert. Triples
   Tobias Risthaus        : Range-separated hybrids, TD-DFT gradient, RPA, STAB
   Michael Roemelt        : Original ROCIS implementation
   Masaaki Saitow         : Open-shell DLPNO-CCSD energy and density
   Barbara Sandhoefer     : DKH picture change effects
   Avijit Sen             : IP-ROCIS
   Kantharuban Sivalingam : CASSCF convergence, NEVPT2, FIC-MRCI
   Bernardo de Souza      : ESD, SOC TD-DFT
   Georgi Stoychev        : AutoAux, RI-MP2 NMR, DLPNO-MP2 response
   Willem Van den Heuvel  : Paramagnetic NMR
   Boris Wezisla          : Elementary symmetry handling
   Frank Wennmohs         : Technical directorship


 We gratefully acknowledge several colleagues who have allowed us to
 interface, adapt or use parts of their codes:
   Stefan Grimme, W. Hujo, H. Kruse, P. Pracht,  : VdW corrections, initial TS optimization,
                  C. Bannwarth, S. Ehlert          DFT functionals, gCP, sTDA/sTD-DF
   Ed Valeev, F. Pavosevic, A. Kumar             : LibInt (2-el integral package), F12 methods
   Garnet Chan, S. Sharma, J. Yang, R. Olivares  : DMRG
   Ulf Ekstrom                                   : XCFun DFT Library
   Mihaly Kallay                                 : mrcc  (arbitrary order and MRCC methods)
   Jiri Pittner, Ondrej Demel                    : Mk-CCSD
   Frank Weinhold                                : gennbo (NPA and NBO analysis)
   Christopher J. Cramer and Donald G. Truhlar   : smd solvation model
   Lars Goerigk                                  : TD-DFT with DH, B97 family of functionals
   V. Asgeirsson, H. Jonsson                     : NEB implementation
   FAccTs GmbH                                   : IRC, NEB, NEB-TS, DLPNO-Multilevel, CI-OPT
                                                   MM, QMMM, 2- and 3-layer-ONIOM, Crystal-QMMM,
                                                   LR-CPCM, SF, NACMEs, symmetry and pop. for TD-DFT,
                                                   nearIR, NL-DFT gradient (VV10), updates on ESD,
                                                   ML-optimized integration grids
   S Lehtola, MJT Oliveira, MAL Marques          : LibXC Library
   Liviu Ungur et al                             : ANISO software


 Your calculation uses the libint2 library for the computation of 2-el integrals
 For citations please refer to: http://libint.valeyev.net

 Your ORCA version has been built with support for libXC version: 5.1.0
 For citations please refer to: https://tddft.org/programs/libxc/

 This ORCA versions uses:
   CBLAS   interface :  Fast vector & matrix operations
   LAPACKE interface :  Fast linear algebra routines
   SCALAPACK package :  Parallel linear algebra routines
   Shared memory     :  Shared parallel matrices
   BLAS/LAPACK       :  OpenBLAS 0.3.15  USE64BITINT DYNAMIC_ARCH NO_AFFINITY SkylakeX SINGLE_THREADED
        Core in use  :  SkylakeX
   Copyright (c) 2011-2014, The OpenBLAS Project




***************************************
The coordinates will be read from file: /gpfs/fs0/scratch/a/aspuru/malcolms/aiida/5d/c9/a95b-7623-4201-9a37-48e830d483cd/orca_freq.xyz
***************************************


Your calculation utilizes the atom-pairwise dispersion correction
with the Becke-Johnson damping scheme (D3BJ)
Cite in your paper:
S.Grimme, S.Ehrlich, L.Goerigk, J Comput Chem, (2011), 32, 1456–1465 
S.Grimme, J.Antony, S.Ehrlich and H.Krieg, J.Chem.Phys., 132, (2010), 154104 
   

================================================================================

----- Orbital basis set information -----
Your calculation utilizes the basis: def2-SVP
   F. Weigend and R. Ahlrichs, Phys. Chem. Chem. Phys. 7, 3297 (2005).

----- AuxJ basis set information -----
Your calculation utilizes the auxiliary basis: def2/J
   F. Weigend, Phys. Chem. Chem. Phys. 8, 1057 (2006).

================================================================================
                                        WARNINGS
                       Please study these warnings very carefully!
================================================================================

INFO   : Checking CIS options ...

INFO   : Since TDDFT/CIS Mode == RPA_AOINTS, the TAMMDANCOFF/TDA keyword is ignored. 


WARNING: (CIS/TDDFT): Spin-orbit needs TRIPLETS set to TRUE
  ===> : ajusting flags

WARNING: CIS/ROCIS methods need fully converged wavefunctions
  ===> : Setting SCFConvForced true
         You can overwrite this default with %scf ConvForced false 


INFO   : the flag for use of the SHARK integral package has been found!

================================================================================
                                       INPUT FILE
================================================================================
NAME = S0_TDA_SP.inp
|  1> ! PBE0 def2-SVP D3BJ def2/J RIJCOSX tightSCF noautostart miniprint nopop defgrid3
|  2> ! EnGrad
|  3> %maxcore    4000
|  4> %pal    nprocs  20  end
|  5> %tddft  PrintLevel  3
|  6> 	TDA	False
|  7> 	DoSOC	True
|  8> 	NRoots	5
|  9> 	IRoot	1
| 10>         MaxDim  10
| 11> end
| 12> * xyzfile 0 1 /gpfs/fs0/scratch/a/aspuru/malcolms/aiida/5d/c9/a95b-7623-4201-9a37-48e830d483cd/orca_freq.xyz
| 13> 
| 14> 
| 15>                          ****END OF INPUT****
================================================================================

                     *******************************
                     * Energy+Gradient Calculation *
                     *******************************

---------------------------------
CARTESIAN COORDINATES (ANGSTROEM)
---------------------------------
  O      0.000005    0.934230    0.003644
  C      0.000046   -0.272897    0.005653
  C      1.185787   -1.186984    0.016290
  C      2.524349   -0.859626    0.028584
  C      3.485758   -1.894256    0.040367
  C      4.922238   -1.644935    0.050895
  C      5.527226   -0.440243    0.010441
  C      6.962898   -0.183121    0.022195
  C      7.420272    1.139549   -0.102717
  C      8.775556    1.444046   -0.113422
  C      9.722392    0.425169    0.023840
  N     11.097441    0.722272    0.025466
  C     11.727113    1.650838    0.848510
  C     11.188562    2.455905    1.854568
  C     12.058362    3.290136    2.549638
  C     13.431655    3.323356    2.260597
  C     13.965058    2.507677    1.269511
  C     13.112921    1.659860    0.555727
  C     13.322429    0.689433   -0.494973
  C     14.449182    0.263938   -1.204749
  C     14.298958   -0.696629   -2.198225
  C     13.032706   -1.225563   -2.493918
  C     11.895410   -0.819555   -1.802984
  C     12.054757    0.132897   -0.794103
  C      9.285222   -0.898979    0.164079
  C      7.931292   -1.195310    0.154685
  C      3.025206   -3.224864    0.042367
  C      1.667830   -3.553227    0.028839
  C      0.735765   -2.523262    0.014867
  C     -0.735477   -2.523338   -0.000115
  C     -1.667447   -3.553409   -0.012552
  C     -3.024840   -3.225189   -0.027721
  C     -3.485501   -1.894618   -0.028894
  C     -4.921990   -1.645428   -0.041245
  C     -5.527108   -0.440721   -0.003226
  C     -6.962786   -0.183734   -0.017205
  C     -7.420462    1.139000    0.105903
  C     -8.775789    1.443384    0.114303
  C     -9.722323    0.424309   -0.023550
  N    -11.097395    0.721297   -0.027623
  C    -11.725830    1.649023   -0.852553
  C    -11.185739    2.453148   -1.858537
  C    -12.054495    3.286623   -2.555813
  C    -13.428252    3.320002   -2.269000
  C    -13.963169    2.505253   -1.277965
  C    -13.112103    1.658213   -0.561983
  C    -13.323202    0.688771    0.489311
  C    -14.451046    0.263838    1.197689
  C    -14.302322   -0.695801    2.192289
  C    -13.036497   -1.224359    2.490481
  C    -11.898137   -0.818890    1.800985
  C    -12.055960    0.132625    0.790983
  C     -9.284830   -0.899921   -0.161986
  C     -7.930888   -1.196123   -0.150294
  C     -2.524187   -0.859884   -0.018514
  C     -1.185608   -1.187103   -0.004456
  H      2.812191    0.193854    0.031818
  H      5.542665   -2.546151    0.089272
  H      4.905057    0.458869   -0.044333
  H      6.690279    1.945852   -0.211983
  H      9.110367    2.475089   -0.241075
  H     10.124687    2.428648    2.094751
  H     11.660504    3.930361    3.340540
  H     14.084981    3.991905    2.825154
  H     15.035620    2.523752    1.052044
  H     15.432313    0.685533   -0.982569
  H     15.170527   -1.039361   -2.759861
  H     12.933818   -1.970319   -3.287198
  H     10.913563   -1.226755   -2.048901
  H     10.022393   -1.693173    0.296419
  H      7.621524   -2.235391    0.273841
  H      3.765153   -4.029727    0.053595
  H      1.357743   -4.600570    0.029850
  H     -1.357270   -4.600724   -0.011380
  H     -3.764713   -4.030135   -0.037897
  H     -5.542314   -2.546744   -0.078942
  H     -4.905068    0.458508    0.051087
  H     -6.690705    1.945462    0.215578
  H     -9.110888    2.474507    0.240549
  H    -10.121476    2.425750   -2.096981
  H    -11.655429    3.926109   -3.346704
  H    -14.080735    3.987934   -2.835261
  H    -15.034081    2.521446   -1.062233
  H    -15.433859    0.685136    0.973551
  H    -15.174754   -1.038090    2.752854
  H    -12.938812   -1.968382    3.284597
  H    -10.916648   -1.225789    2.048822
  H    -10.021735   -1.694283   -0.294791
  H     -7.620837   -2.236264   -0.268188
  H     -2.812121    0.193562   -0.024085

----------------------------
CARTESIAN COORDINATES (A.U.)
----------------------------
  NO LB      ZA    FRAG     MASS         X           Y           Z
   0 O     8.0000    0    15.999    0.000009    1.765439    0.006887
   1 C     6.0000    0    12.011    0.000088   -0.515700    0.010683
   2 C     6.0000    0    12.011    2.240812   -2.243075    0.030783
   3 C     6.0000    0    12.011    4.770328   -1.624459    0.054016
   4 C     6.0000    0    12.011    6.587129   -3.579626    0.076283
   5 C     6.0000    0    12.011    9.301682   -3.108477    0.096177
   6 C     6.0000    0    12.011   10.444944   -0.831938    0.019730
   7 C     6.0000    0    12.011   13.157971   -0.346049    0.041943
   8 C     6.0000    0    12.011   14.022282    2.153435   -0.194106
   9 C     6.0000    0    12.011   16.583398    2.728851   -0.214337
  10 C     6.0000    0    12.011   18.372658    0.803452    0.045051
  11 N     7.0000    0    14.007   20.971125    1.364896    0.048123
  12 C     6.0000    0    12.011   22.161031    3.119632    1.603451
  13 C     6.0000    0    12.011   21.143319    4.640988    3.504626
  14 C     6.0000    0    12.011   22.787002    6.217455    4.818117
  15 C     6.0000    0    12.011   25.382149    6.280233    4.271908
  16 C     6.0000    0    12.011   26.390134    4.738823    2.399028
  17 C     6.0000    0    12.011   24.779829    3.136681    1.050172
  18 C     6.0000    0    12.011   25.175742    1.302839   -0.935363
  19 C     6.0000    0    12.011   27.304997    0.498771   -2.276645
  20 C     6.0000    0    12.011   27.021115   -1.316438   -4.154044
  21 C     6.0000    0    12.011   24.628245   -2.315979   -4.712822
  22 C     6.0000    0    12.011   22.479066   -1.548735   -3.407145
  23 C     6.0000    0    12.011   22.780189    0.251140   -1.500637
  24 C     6.0000    0    12.011   17.546528   -1.698825    0.310065
  25 C     6.0000    0    12.011   14.987969   -2.258808    0.292312
  26 C     6.0000    0    12.011    5.716811   -6.094110    0.080063
  27 C     6.0000    0    12.011    3.151742   -6.714626    0.054497
  28 C     6.0000    0    12.011    1.390394   -4.768275    0.028095
  29 C     6.0000    0    12.011   -1.389849   -4.768418   -0.000218
  30 C     6.0000    0    12.011   -3.151019   -6.714969   -0.023720
  31 C     6.0000    0    12.011   -5.716119   -6.094724   -0.052385
  32 C     6.0000    0    12.011   -6.586642   -3.580309   -0.054602
  33 C     6.0000    0    12.011   -9.301213   -3.109409   -0.077941
  34 C     6.0000    0    12.011  -10.444721   -0.832843   -0.006096
  35 C     6.0000    0    12.011  -13.157759   -0.347207   -0.032512
  36 C     6.0000    0    12.011  -14.022640    2.152399    0.200128
  37 C     6.0000    0    12.011  -16.583837    2.727601    0.216002
  38 C     6.0000    0    12.011  -18.372528    0.801827   -0.044502
  39 N     7.0000    0    14.007  -20.971038    1.363054   -0.052200
  40 C     6.0000    0    12.011  -22.158608    3.116201   -1.611092
  41 C     6.0000    0    12.011  -21.137983    4.635778   -3.512125
  42 C     6.0000    0    12.011  -22.779695    6.210818   -4.829786
  43 C     6.0000    0    12.011  -25.375719    6.273894   -4.287789
  44 C     6.0000    0    12.011  -26.386566    4.734243   -2.415004
  45 C     6.0000    0    12.011  -24.778284    3.133569   -1.061993
  46 C     6.0000    0    12.011  -25.177203    1.301588    0.924663
  47 C     6.0000    0    12.011  -27.308519    0.498581    2.263305
  48 C     6.0000    0    12.011  -27.027471   -1.314874    4.142827
  49 C     6.0000    0    12.011  -24.635410   -2.313703    4.706326
  50 C     6.0000    0    12.011  -22.484220   -1.547478    3.403368
  51 C     6.0000    0    12.011  -22.782462    0.250626    1.494741
  52 C     6.0000    0    12.011  -17.545785   -1.700604   -0.306109
  53 C     6.0000    0    12.011  -14.987207   -2.260345   -0.284014
  54 C     6.0000    0    12.011   -4.770023   -1.624945   -0.034987
  55 C     6.0000    0    12.011   -2.240474   -2.243299   -0.008420
  56 H     1.0000    0     1.008    5.314270    0.366332    0.060127
  57 H     1.0000    0     1.008   10.474119   -4.811528    0.168701
  58 H     1.0000    0     1.008    9.269215    0.867138   -0.083777
  59 H     1.0000    0     1.008   12.642795    3.677127   -0.400590
  60 H     1.0000    0     1.008   17.216098    4.677240   -0.455565
  61 H     1.0000    0     1.008   19.132886    4.589480    3.958505
  62 H     1.0000    0     1.008   22.035160    7.427306    6.312705
  63 H     1.0000    0     1.008   26.616757    7.543607    5.338768
  64 H     1.0000    0     1.008   28.413205    4.769201    1.988075
  65 H     1.0000    0     1.008   29.162845    1.295469   -1.856786
  66 H     1.0000    0     1.008   28.668141   -1.964108   -5.215381
  67 H     1.0000    0     1.008   24.441374   -3.723364   -6.211904
  68 H     1.0000    0     1.008   20.623646   -2.318231   -3.871862
  69 H     1.0000    0     1.008   18.939579   -3.199633    0.560151
  70 H     1.0000    0     1.008   14.402592   -4.224276    0.517485
  71 H     1.0000    0     1.008    7.115109   -7.615080    0.101280
  72 H     1.0000    0     1.008    2.565763   -8.693817    0.056408
  73 H     1.0000    0     1.008   -2.564869   -8.694109   -0.021505
  74 H     1.0000    0     1.008   -7.114276   -7.615851   -0.071615
  75 H     1.0000    0     1.008  -10.473456   -4.812648   -0.149179
  76 H     1.0000    0     1.008   -9.269236    0.866455    0.096541
  77 H     1.0000    0     1.008  -12.643600    3.676390    0.407384
  78 H     1.0000    0     1.008  -17.217083    4.676141    0.454572
  79 H     1.0000    0     1.008  -19.126817    4.584004   -3.962720
  80 H     1.0000    0     1.008  -22.025570    7.419271   -6.324355
  81 H     1.0000    0     1.008  -26.608733    7.536104   -5.357867
  82 H     1.0000    0     1.008  -28.410297    4.764843   -2.007330
  83 H     1.0000    0     1.008  -29.165767    1.294719    1.839745
  84 H     1.0000    0     1.008  -28.676129   -1.961705    5.202139
  85 H     1.0000    0     1.008  -24.450812   -3.719703    6.206989
  86 H     1.0000    0     1.008  -20.629475   -2.316406    3.871713
  87 H     1.0000    0     1.008  -18.938335   -3.201732   -0.557074
  88 H     1.0000    0     1.008  -14.401295   -4.225927   -0.506801
  89 H     1.0000    0     1.008   -5.314139    0.365779   -0.045514



           ************************************************************
           *        Program running with 20 parallel MPI-processes    *
           *              working on a common directory               *
           ************************************************************
------------------------------------------------------------------------------
                   ___                                                        
                  /   \      - P O W E R E D   B Y -                         
                 /     \                                                     
                 |  |  |   _    _      __       _____    __    __             
                 |  |  |  | |  | |    /  \     |  _  \  |  |  /  |          
                  \  \/   | |  | |   /    \    | | | |  |  | /  /          
                 / \  \   | |__| |  /  /\  \   | |_| |  |  |/  /          
                |  |  |   |  __  | /  /__\  \  |    /   |      \           
                |  |  |   | |  | | |   __   |  |    \   |  |\   \          
                \     /   | |  | | |  |  |  |  | |\  \  |  | \   \       
                 \___/    |_|  |_| |__|  |__|  |_| \__\ |__|  \__/        
                                                                              
                      - O R C A' S   B I G   F R I E N D -                    
                                      &                                       
                       - I N T E G R A L  F E E D E R -                       
                                                                              
 v1 FN, 2020, v2 2021                                                         
------------------------------------------------------------------------------


Reading SHARK input file S0_TDA_SP.SHARKINP.tmp ... ok
----------------------
SHARK INTEGRAL PACKAGE
----------------------

Number of atoms                             ...     90
Number of basis functions                   ...    954
Number of shells                            ...    438
Maximum angular momentum                    ...      2
Integral batch strategy                     ... SHARK/LIBINT Hybrid
RI-J (if used) integral strategy            ... SPLIT-RIJ (Revised 2003 algorithm where possible)
Printlevel                                  ...      1
Contraction scheme used                     ... SEGMENTED contraction
Coulomb Range Separation                    ... NOT USED
Exchange Range Separation                   ... NOT USED
Finite Nucleus Model                        ... NOT USED
Auxiliary Coulomb fitting basis             ... AVAILABLE
   # of basis functions in Aux-J            ...   3118
   # of shells in Aux-J                     ...   1010
   Maximum angular momentum in Aux-J        ...      4
Auxiliary J/K fitting basis                 ... NOT available
Auxiliary Correlation fitting basis         ... NOT available
Auxiliary 'external' fitting basis          ... NOT available
Integral threshold                          ...     2.500000e-11
Primitive cut-off                           ...     2.500000e-12
Primitive pair pre-selection threshold      ...     2.500000e-12

Calculating pre-screening integrals         ... done (  0.1 sec) Dimension = 438
Organizing shell pair data                  ... done (  0.3 sec)
Shell pair information
Total number of shell pairs                 ...     96141
Shell pairs after pre-screening             ...     31718
Total number of primitive shell pairs       ...    355733
Primitive shell pairs kept                  ...     73233
          la=0 lb=0:   9472 shell pairs
          la=1 lb=0:  11782 shell pairs
          la=1 lb=1:   3764 shell pairs
          la=2 lb=0:   3848 shell pairs
          la=2 lb=1:   2448 shell pairs
          la=2 lb=2:    404 shell pairs

Calculating one electron integrals          ... done (  0.1 sec)
Calculating RI/J V-Matrix + Cholesky decomp.... done (  0.7 sec)
Calculating Nuclear repulsion               ... done (  0.0 sec) ENN=   5608.728017630790 Eh

SHARK setup successfully completed in   1.9 seconds

Maximum memory used throughout the entire GTOINT-calculation: 59.1 MB


           ************************************************************
           *        Program running with 20 parallel MPI-processes    *
           *              working on a common directory               *
           ************************************************************

Diagonalization of the overlap matrix:
Smallest eigenvalue                        ... 2.248e-04
Time for diagonalization                   ...    0.518 sec
Threshold for overlap eigenvalues          ... 1.000e-08
Number of eigenvalues below threshold      ... 0
Time for construction of square roots      ...    0.198 sec
Total time needed                          ...    0.726 sec

Time for model grid setup =    1.323 sec

Loading Hartree-Fock densities                     ... done
Calculating cut-offs                               ... done
Initializing the effective Hamiltonian             ... done
Setting up the integral package (SHARK)            ... done
Starting the Coulomb interaction                   ... done (   0.8 sec)
Reading the grid                                   ... done
Mapping shells                                     ... done
Starting the XC term evaluation                    ... done (   0.2 sec)
  promolecular density results
     # of electrons  =    373.970248432
     EX              =   -302.481117237
     EC              =    -12.583483267
     EX+EC           =   -315.064600504
Transforming the Hamiltonian                       ... done (   0.2 sec)
Diagonalizing the Hamiltonian                      ... done (   0.4 sec)
Back transforming the eigenvectors                 ... done (   0.1 sec)
Now organizing SCF variables                       ... done
-------------------
DFT GRID GENERATION
-------------------

General Integration Accuracy     IntAcc      ... 4.959
Radial Grid Type                 RadialGrid  ... OptM3 with GC (2021)
Angular Grid (max. ang.)         AngularGrid ... 6 (Lebedev-590)
Angular grid pruning method      GridPruning ... 4 (adaptive)
Weight generation scheme         WeightScheme... Becke
Basis function cutoff            BFCut       ... 1.0000e-11
Integration weight cutoff        WCut        ... 1.0000e-14
Angular grids for H and He will be reduced by one unit
Partially contracted basis set               ... off
Rotationally invariant grid construction     ... off

Total number of grid points                  ...  1080383
Total number of batches                      ...    16928
Average number of points per batch           ...       63
Average number of grid points per atom       ...    12004
Time for grid setup =   20.195 sec

--------------------
COSX GRID GENERATION
--------------------

GRIDX 1
-------
General Integration Accuracy     IntAcc      ... 4.020
Radial Grid Type                 RadialGrid  ... OptM3 with GC (2021)
Angular Grid (max. ang.)         AngularGrid ... 2 (Lebedev-110)
Angular grid pruning method      GridPruning ... 4 (adaptive)
Weight generation scheme         WeightScheme... Becke
Basis function cutoff            BFCut       ... 1.0000e-11
Integration weight cutoff        WCut        ... 1.0000e-14
Angular grids for H and He will be reduced by one unit
Partially contracted basis set               ... on
Rotationally invariant grid construction     ... off

Total number of grid points                  ...   122697
Total number of batches                      ...     1964
Average number of points per batch           ...       62
Average number of grid points per atom       ...     1363
UseSFitting                                  ... on

GRIDX 2
-------
General Integration Accuracy     IntAcc      ... 4.338
Radial Grid Type                 RadialGrid  ... OptM3 with GC (2021)
Angular Grid (max. ang.)         AngularGrid ... 3 (Lebedev-194)
Angular grid pruning method      GridPruning ... 4 (adaptive)
Weight generation scheme         WeightScheme... Becke
Basis function cutoff            BFCut       ... 1.0000e-11
Integration weight cutoff        WCut        ... 1.0000e-14
Angular grids for H and He will be reduced by one unit
Partially contracted basis set               ... on
Rotationally invariant grid construction     ... off

Total number of grid points                  ...   268413
Total number of batches                      ...     4248
Average number of points per batch           ...       63
Average number of grid points per atom       ...     2982
UseSFitting                                  ... on

GRIDX 3
-------
General Integration Accuracy     IntAcc      ... 4.871
Radial Grid Type                 RadialGrid  ... OptM3 with GC (2021)
Angular Grid (max. ang.)         AngularGrid ... 4 (Lebedev-302)
Angular grid pruning method      GridPruning ... 4 (adaptive)
Weight generation scheme         WeightScheme... Becke
Basis function cutoff            BFCut       ... 1.0000e-11
Integration weight cutoff        WCut        ... 1.0000e-14
Angular grids for H and He will be reduced by one unit
Partially contracted basis set               ... on
Rotationally invariant grid construction     ... off

Total number of grid points                  ...   495288
Total number of batches                      ...     7788
Average number of points per batch           ...       63
Average number of grid points per atom       ...     5503
UseSFitting                                  ... on

Time for X-Grid setup             =   11.377 sec

--------------
SCF ITERATIONS
--------------
ITER       Energy         Delta-E        Max-DP      RMS-DP      [F,P]     Damp
               ***  Starting incremental Fock matrix formation  ***
  0  -2219.9153703045   0.000000000000 0.08093662  0.00108759  0.2186040 0.7000
  1  -2220.2775610252  -0.362190720718 0.04909753  0.00077171  0.0921558 0.7000
                               ***Turning on DIIS***
  2  -2220.4475248457  -0.169963820482 0.07629472  0.00146200  0.0313992 0.0000
  3  -2220.7067824247  -0.259257579022 0.03308826  0.00042875  0.0459432 0.0000
  4  -2220.7570789453  -0.050296520569 0.01394909  0.00012705  0.0175651 0.0000
  5  -2220.7598738346  -0.002794889303 0.00632030  0.00004641  0.0116451 0.0000
                      *** Initiating the SOSCF procedure ***
                           *** Shutting down DIIS ***
                      *** Re-Reading the Fockian *** 
                      *** Removing any level shift *** 
ITER      Energy       Delta-E        Grad      Rot      Max-DP    RMS-DP
  6  -2220.76020324  -0.0003294069  0.000448  0.000448  0.001713  0.000016
               *** Restarting incremental Fock matrix formation ***
  7  -2220.76024140  -0.0000381542  0.000354  0.002168  0.002223  0.000017
  8  -2220.76022830   0.0000130984  0.000572  0.000719  0.001527  0.000010
  9  -2220.76025207  -0.0000237763  0.000037  0.000178  0.000179  0.000002
 10  -2220.76025194   0.0000001356  0.000056  0.000100  0.000141  0.000001
 11  -2220.76025221  -0.0000002729  0.000015  0.000042  0.000046  0.000001
 12  -2220.76025225  -0.0000000367  0.000013  0.000024  0.000033  0.000000
 13  -2220.76025220   0.0000000503  0.000003  0.000009  0.000020  0.000000
 14  -2220.76025217   0.0000000273  0.000005  0.000006  0.000011  0.000000
                  ***Gradient check signals convergence***
              ***Rediagonalizing the Fockian in SOSCF/NRSCF***

               *****************************************************
               *                     SUCCESS                       *
               *           SCF CONVERGED AFTER  15 CYCLES          *
               *****************************************************

Old exchange energy                            =    -76.962177984 Eh
New exchange energy                            =    -76.962231981 Eh
Exchange energy change after final integration =     -0.000053997 Eh
Total energy after final integration           =  -2220.760306176 Eh
Final COS-X integration done in                =    47.683 sec
Total Energy       :        -2220.76030618 Eh          -60429.96013 eV
  Last Energy change         ...   -8.5906e-09  Tolerance :   1.0000e-08
  Last MAX-Density change    ...    6.6613e-15  Tolerance :   1.0000e-07
             **** THE GBW FILE WAS UPDATED (S0_TDA_SP.gbw) ****
             **** DENSITY S0_TDA_SP.scfp WAS UPDATED ****
             **** ENERGY FILE WAS UPDATED (S0_TDA_SP.en.tmp) ****
             **** THE GBW FILE WAS UPDATED (S0_TDA_SP.gbw) ****
             **** DENSITY S0_TDA_SP.scfp WAS UPDATED ****
----------------
ORBITAL ENERGIES
----------------

  NO   OCC          E(Eh)            E(eV) 
   0   2.0000     -19.213565      -522.8277 
   1   2.0000     -14.450282      -393.2122 
   2   2.0000     -14.450280      -393.2121 
   3   2.0000     -10.329246      -281.0731 
   4   2.0000     -10.294514      -280.1280 
   5   2.0000     -10.294513      -280.1279 
   6   2.0000     -10.277618      -279.6682 
   7   2.0000     -10.277617      -279.6682 
   8   2.0000     -10.277530      -279.6658 
   9   2.0000     -10.277528      -279.6657 
  10   2.0000     -10.266786      -279.3735 
  11   2.0000     -10.266779      -279.3733 
  12   2.0000     -10.265514      -279.3388 
  13   2.0000     -10.265411      -279.3360 
  14   2.0000     -10.262138      -279.2470 
  15   2.0000     -10.262137      -279.2470 
  16   2.0000     -10.261662      -279.2340 
  17   2.0000     -10.261657      -279.2339 
  18   2.0000     -10.261084      -279.2183 
  19   2.0000     -10.261064      -279.2178 
  20   2.0000     -10.260545      -279.2036 
  21   2.0000     -10.260446      -279.2009 
  22   2.0000     -10.256255      -279.0869 
  23   2.0000     -10.256254      -279.0869 
  24   2.0000     -10.255950      -279.0786 
  25   2.0000     -10.255948      -279.0785 
  26   2.0000     -10.255657      -279.0706 
  27   2.0000     -10.255657      -279.0706 
  28   2.0000     -10.255539      -279.0674 
  29   2.0000     -10.255539      -279.0674 
  30   2.0000     -10.255213      -279.0585 
  31   2.0000     -10.255212      -279.0585 
  32   2.0000     -10.254770      -279.0465 
  33   2.0000     -10.254769      -279.0465 
  34   2.0000     -10.251873      -278.9676 
  35   2.0000     -10.251849      -278.9670 
  36   2.0000     -10.241309      -278.6802 
  37   2.0000     -10.241309      -278.6802 
  38   2.0000     -10.241169      -278.6764 
  39   2.0000     -10.241168      -278.6764 
  40   2.0000     -10.241084      -278.6741 
  41   2.0000     -10.241083      -278.6740 
  42   2.0000     -10.240880      -278.6685 
  43   2.0000     -10.240878      -278.6685 
  44   2.0000     -10.240172      -278.6493 
  45   2.0000     -10.240172      -278.6492 
  46   2.0000     -10.239932      -278.6427 
  47   2.0000     -10.239931      -278.6427 
  48   2.0000     -10.239866      -278.6409 
  49   2.0000     -10.239865      -278.6409 
  50   2.0000     -10.239572      -278.6329 
  51   2.0000     -10.239570      -278.6329 
  52   2.0000     -10.233745      -278.4744 
  53   2.0000     -10.233744      -278.4743 
  54   2.0000     -10.233507      -278.4679 
  55   2.0000     -10.233505      -278.4678 
  56   2.0000      -1.070985       -29.1430 
  57   2.0000      -1.024720       -27.8841 
  58   2.0000      -1.024720       -27.8840 
  59   2.0000      -0.927687       -25.2436 
  60   2.0000      -0.904524       -24.6134 
  61   2.0000      -0.904072       -24.6010 
  62   2.0000      -0.894402       -24.3379 
  63   2.0000      -0.873477       -23.7685 
  64   2.0000      -0.872067       -23.7301 
  65   2.0000      -0.870184       -23.6789 
  66   2.0000      -0.870183       -23.6789 
  67   2.0000      -0.855546       -23.2806 
  68   2.0000      -0.832293       -22.6478 
  69   2.0000      -0.823284       -22.4027 
  70   2.0000      -0.807299       -21.9677 
  71   2.0000      -0.804595       -21.8942 
  72   2.0000      -0.791882       -21.5482 
  73   2.0000      -0.784075       -21.3358 
  74   2.0000      -0.783859       -21.3299 
  75   2.0000      -0.782473       -21.2922 
  76   2.0000      -0.779662       -21.2157 
  77   2.0000      -0.770187       -20.9578 
  78   2.0000      -0.770090       -20.9552 
  79   2.0000      -0.765393       -20.8274 
  80   2.0000      -0.751980       -20.4624 
  81   2.0000      -0.736584       -20.0435 
  82   2.0000      -0.736564       -20.0429 
  83   2.0000      -0.735310       -20.0088 
  84   2.0000      -0.721532       -19.6339 
  85   2.0000      -0.700735       -19.0680 
  86   2.0000      -0.685119       -18.6430 
  87   2.0000      -0.674179       -18.3454 
  88   2.0000      -0.660116       -17.9627 
  89   2.0000      -0.652252       -17.7487 
  90   2.0000      -0.650843       -17.7103 
  91   2.0000      -0.642886       -17.4938 
  92   2.0000      -0.636726       -17.3262 
  93   2.0000      -0.628859       -17.1121 
  94   2.0000      -0.623544       -16.9675 
  95   2.0000      -0.622431       -16.9372 
  96   2.0000      -0.619873       -16.8676 
  97   2.0000      -0.605119       -16.4661 
  98   2.0000      -0.601176       -16.3588 
  99   2.0000      -0.592924       -16.1343 
 100   2.0000      -0.592756       -16.1297 
 101   2.0000      -0.592106       -16.1120 
 102   2.0000      -0.585310       -15.9271 
 103   2.0000      -0.573008       -15.5923 
 104   2.0000      -0.560901       -15.2629 
 105   2.0000      -0.560412       -15.2496 
 106   2.0000      -0.539436       -14.6788 
 107   2.0000      -0.538758       -14.6603 
 108   2.0000      -0.536536       -14.5999 
 109   2.0000      -0.532592       -14.4926 
 110   2.0000      -0.529059       -14.3964 
 111   2.0000      -0.526540       -14.3279 
 112   2.0000      -0.519247       -14.1294 
 113   2.0000      -0.510211       -13.8836 
 114   2.0000      -0.509650       -13.8683 
 115   2.0000      -0.493000       -13.4152 
 116   2.0000      -0.492532       -13.4025 
 117   2.0000      -0.482832       -13.1385 
 118   2.0000      -0.482146       -13.1199 
 119   2.0000      -0.478644       -13.0246 
 120   2.0000      -0.472499       -12.8573 
 121   2.0000      -0.472307       -12.8521 
 122   2.0000      -0.471689       -12.8353 
 123   2.0000      -0.470370       -12.7994 
 124   2.0000      -0.468654       -12.7527 
 125   2.0000      -0.463582       -12.6147 
 126   2.0000      -0.462375       -12.5819 
 127   2.0000      -0.459123       -12.4934 
 128   2.0000      -0.456785       -12.4298 
 129   2.0000      -0.454591       -12.3701 
 130   2.0000      -0.454453       -12.3663 
 131   2.0000      -0.452742       -12.3197 
 132   2.0000      -0.452467       -12.3122 
 133   2.0000      -0.450845       -12.2681 
 134   2.0000      -0.447616       -12.1803 
 135   2.0000      -0.445972       -12.1355 
 136   2.0000      -0.443254       -12.0616 
 137   2.0000      -0.443163       -12.0591 
 138   2.0000      -0.440877       -11.9969 
 139   2.0000      -0.437564       -11.9067 
 140   2.0000      -0.432659       -11.7732 
 141   2.0000      -0.432568       -11.7708 
 142   2.0000      -0.419723       -11.4212 
 143   2.0000      -0.413632       -11.2555 
 144   2.0000      -0.412239       -11.2176 
 145   2.0000      -0.410560       -11.1719 
 146   2.0000      -0.407842       -11.0980 
 147   2.0000      -0.401461       -10.9243 
 148   2.0000      -0.399816       -10.8795 
 149   2.0000      -0.398389       -10.8407 
 150   2.0000      -0.385961       -10.5025 
 151   2.0000      -0.385187       -10.4815 
 152   2.0000      -0.381176       -10.3723 
 153   2.0000      -0.380967       -10.3666 
 154   2.0000      -0.379377       -10.3234 
 155   2.0000      -0.379171       -10.3178 
 156   2.0000      -0.376446       -10.2436 
 157   2.0000      -0.375450       -10.2165 
 158   2.0000      -0.374283       -10.1848 
 159   2.0000      -0.372994       -10.1497 
 160   2.0000      -0.368267       -10.0210 
 161   2.0000      -0.366358        -9.9691 
 162   2.0000      -0.360690        -9.8149 
 163   2.0000      -0.357034        -9.7154 
 164   2.0000      -0.354888        -9.6570 
 165   2.0000      -0.352273        -9.5858 
 166   2.0000      -0.352271        -9.5858 
 167   2.0000      -0.350456        -9.5364 
 168   2.0000      -0.345447        -9.4001 
 169   2.0000      -0.330892        -9.0040 
 170   2.0000      -0.309898        -8.4328 
 171   2.0000      -0.299845        -8.1592 
 172   2.0000      -0.298759        -8.1296 
 173   2.0000      -0.290828        -7.9138 
 174   2.0000      -0.286666        -7.8006 
 175   2.0000      -0.285901        -7.7798 
 176   2.0000      -0.285860        -7.7787 
 177   2.0000      -0.281644        -7.6639 
 178   2.0000      -0.275212        -7.4889 
 179   2.0000      -0.271268        -7.3816 
 180   2.0000      -0.271266        -7.3815 
 181   2.0000      -0.248584        -6.7643 
 182   2.0000      -0.231606        -6.3023 
 183   2.0000      -0.231604        -6.3023 
 184   2.0000      -0.228605        -6.2207 
 185   2.0000      -0.215050        -5.8518 
 186   2.0000      -0.209196        -5.6925 
 187   0.0000      -0.096192        -2.6175 
 188   0.0000      -0.077469        -2.1080 
 189   0.0000      -0.061172        -1.6646 
 190   0.0000      -0.033861        -0.9214 
 191   0.0000      -0.033860        -0.9214 
 192   0.0000      -0.025468        -0.6930 
 193   0.0000      -0.021021        -0.5720 
 194   0.0000      -0.020208        -0.5499 
 195   0.0000      -0.010995        -0.2992 
 196   0.0000       0.000565         0.0154 
 197   0.0000       0.000567         0.0154 
 198   0.0000       0.006350         0.1728 
 199   0.0000       0.021040         0.5725 
 200   0.0000       0.031442         0.8556 
 201   0.0000       0.037506         1.0206 
 202   0.0000       0.037507         1.0206 
 203   0.0000       0.041839         1.1385 
 204   0.0000       0.060757         1.6533 
 205   0.0000       0.064394         1.7523 
 206   0.0000       0.070572         1.9204 
 207   0.0000       0.070796         1.9265 
 208   0.0000       0.073309         1.9948 
 209   0.0000       0.075342         2.0502 
 210   0.0000       0.078556         2.1376 
 211   0.0000       0.079282         2.1574 
 212   0.0000       0.080222         2.1829 
 213   0.0000       0.083399         2.2694 
 214   0.0000       0.083458         2.2710 
 215   0.0000       0.085984         2.3397 
 216   0.0000       0.099205         2.6995 
 217   0.0000       0.103297         2.8109 
 218   0.0000       0.104302         2.8382 
 219   0.0000       0.110919         3.0183 
 220   0.0000       0.113113         3.0780 
 221   0.0000       0.120812         3.2875 
 222   0.0000       0.127392         3.4665 
 223   0.0000       0.128370         3.4931 
 224   0.0000       0.129648         3.5279 
 225   0.0000       0.133673         3.6374 
 226   0.0000       0.134612         3.6630 
 227   0.0000       0.143230         3.8975 
 228   0.0000       0.143520         3.9054 
 229   0.0000       0.147057         4.0016 
 230   0.0000       0.148774         4.0484 
 231   0.0000       0.157287         4.2800 
 232   0.0000       0.157462         4.2848 
 233   0.0000       0.157778         4.2934 
 234   0.0000       0.157906         4.2968 
 235   0.0000       0.163751         4.4559 
 236   0.0000       0.167945         4.5700 
 237   0.0000       0.171960         4.6793 
 238   0.0000       0.174867         4.7584 
 239   0.0000       0.181149         4.9293 
 240   0.0000       0.186084         5.0636 
 241   0.0000       0.188735         5.1357 
 242   0.0000       0.189119         5.1462 
 243   0.0000       0.190200         5.1756 
 244   0.0000       0.190808         5.1921 
 245   0.0000       0.191025         5.1980 
 246   0.0000       0.192731         5.2445 
 247   0.0000       0.196227         5.3396 
 248   0.0000       0.196365         5.3434 
 249   0.0000       0.200688         5.4610 
 250   0.0000       0.200726         5.4620 
 251   0.0000       0.220651         6.0042 
 252   0.0000       0.222440         6.0529 
 253   0.0000       0.232333         6.3221 
 254   0.0000       0.234825         6.3899 
 255   0.0000       0.243083         6.6146 
 256   0.0000       0.243468         6.6251 
 257   0.0000       0.245983         6.6935 
 258   0.0000       0.246980         6.7207 
 259   0.0000       0.250047         6.8041 
 260   0.0000       0.253898         6.9089 
 261   0.0000       0.255150         6.9430 
 262   0.0000       0.265148         7.2150 
 263   0.0000       0.266125         7.2416 
 264   0.0000       0.268665         7.3108 
 265   0.0000       0.275704         7.5023 
 266   0.0000       0.277883         7.5616 
 267   0.0000       0.278147         7.5688 
 268   0.0000       0.284399         7.7389 
 269   0.0000       0.287383         7.8201 
 270   0.0000       0.293589         7.9890 
 271   0.0000       0.294969         8.0265 
 272   0.0000       0.297036         8.0828 
 273   0.0000       0.299616         8.1530 
 274   0.0000       0.301195         8.1959 
 275   0.0000       0.303024         8.2457 
 276   0.0000       0.304431         8.2840 
 277   0.0000       0.309598         8.4246 
 278   0.0000       0.313717         8.5367 
 279   0.0000       0.314536         8.5590 
 280   0.0000       0.317279         8.6336 
 281   0.0000       0.319580         8.6962 
 282   0.0000       0.327335         8.9072 
 283   0.0000       0.328076         8.9274 
 284   0.0000       0.329279         8.9601 
 285   0.0000       0.331080         9.0092 
 286   0.0000       0.336496         9.1565 
 287   0.0000       0.338160         9.2018 
 288   0.0000       0.339051         9.2261 
 289   0.0000       0.340032         9.2527 
 290   0.0000       0.341585         9.2950 
 291   0.0000       0.341608         9.2956 
 292   0.0000       0.345770         9.4089 
 293   0.0000       0.350061         9.5256 
 294   0.0000       0.350606         9.5405 
 295   0.0000       0.358166         9.7462 
 296   0.0000       0.363501         9.8914 
 297   0.0000       0.364856         9.9282 
 298   0.0000       0.374257        10.1841 
 299   0.0000       0.374389        10.1876 
 300   0.0000       0.375758        10.2249 
 301   0.0000       0.376706        10.2507 
 302   0.0000       0.381317        10.3762 
 303   0.0000       0.383838        10.4448 
 304   0.0000       0.389264        10.5924 
 305   0.0000       0.390251        10.6193 
 306   0.0000       0.394482        10.7344 
 307   0.0000       0.395556        10.7636 
 308   0.0000       0.395926        10.7737 
 309   0.0000       0.405587        11.0366 
 310   0.0000       0.408200        11.1077 
 311   0.0000       0.410031        11.1575 
 312   0.0000       0.415895        11.3171 
 313   0.0000       0.416091        11.3224 
 314   0.0000       0.421355        11.4657 
 315   0.0000       0.424104        11.5405 
 316   0.0000       0.426318        11.6007 
 317   0.0000       0.429655        11.6915 
 318   0.0000       0.430334        11.7100 
 319   0.0000       0.432771        11.7763 
 320   0.0000       0.435318        11.8456 
 321   0.0000       0.447140        12.1673 
 322   0.0000       0.447571        12.1790 
 323   0.0000       0.450980        12.2718 
 324   0.0000       0.451799        12.2941 
 325   0.0000       0.457277        12.4432 
 326   0.0000       0.457701        12.4547 
 327   0.0000       0.459063        12.4917 
 328   0.0000       0.461007        12.5446 
 329   0.0000       0.461251        12.5513 
 330   0.0000       0.462581        12.5875 
 331   0.0000       0.463195        12.6042 
 332   0.0000       0.470701        12.8084 
 333   0.0000       0.471214        12.8224 
 334   0.0000       0.471310        12.8250 
 335   0.0000       0.474321        12.9069 
 336   0.0000       0.475066        12.9272 
 337   0.0000       0.477206        12.9854 
 338   0.0000       0.485020        13.1981 
 339   0.0000       0.488570        13.2947 
 340   0.0000       0.489297        13.3145 
 341   0.0000       0.492452        13.4003 
 342   0.0000       0.493599        13.4315 
 343   0.0000       0.493797        13.4369 
 344   0.0000       0.497005        13.5242 
 345   0.0000       0.497618        13.5409 
 346   0.0000       0.499486        13.5917 
 347   0.0000       0.499704        13.5976 
 348   0.0000       0.500059        13.6073 
 349   0.0000       0.500491        13.6191 
 350   0.0000       0.500623        13.6226 
 351   0.0000       0.504615        13.7313 
 352   0.0000       0.505178        13.7466 
 353   0.0000       0.508400        13.8343 
 354   0.0000       0.508768        13.8443 
 355   0.0000       0.514042        13.9878 
 356   0.0000       0.514665        14.0048 
 357   0.0000       0.519009        14.1230 
 358   0.0000       0.519616        14.1395 
 359   0.0000       0.528316        14.3762 
 360   0.0000       0.528649        14.3853 
 361   0.0000       0.529333        14.4039 
 362   0.0000       0.532189        14.4816 
 363   0.0000       0.533817        14.5259 
 364   0.0000       0.534798        14.5526 
 365   0.0000       0.538265        14.6469 
 366   0.0000       0.543358        14.7855 
 367   0.0000       0.545055        14.8317 
 368   0.0000       0.545631        14.8474 
 369   0.0000       0.547606        14.9011 
 370   0.0000       0.547910        14.9094 
 371   0.0000       0.562559        15.3080 
 372   0.0000       0.564071        15.3492 
 373   0.0000       0.573824        15.6146 
 374   0.0000       0.575668        15.6647 
 375   0.0000       0.576489        15.6871 
 376   0.0000       0.576941        15.6994 
 377   0.0000       0.580155        15.7868 
 378   0.0000       0.580258        15.7896 
 379   0.0000       0.580928        15.8079 
 380   0.0000       0.585245        15.9253 
 381   0.0000       0.586975        15.9724 
 382   0.0000       0.599720        16.3192 
 383   0.0000       0.599827        16.3221 
 384   0.0000       0.601309        16.3625 
 385   0.0000       0.601606        16.3705 
 386   0.0000       0.603263        16.4156 
 387   0.0000       0.605376        16.4731 
 388   0.0000       0.612607        16.6699 
 389   0.0000       0.628667        17.1069 
 390   0.0000       0.628751        17.1092 
 391   0.0000       0.631854        17.1936 
 392   0.0000       0.638514        17.3748 
 393   0.0000       0.640564        17.4306 
 394   0.0000       0.643942        17.5226 
 395   0.0000       0.647733        17.6257 
 396   0.0000       0.650608        17.7039 
 397   0.0000       0.652679        17.7603 
 398   0.0000       0.656390        17.8613 
 399   0.0000       0.657123        17.8812 
 400   0.0000       0.658533        17.9196 
 401   0.0000       0.659680        17.9508 
 402   0.0000       0.661999        18.0139 
 403   0.0000       0.662117        18.0171 
 404   0.0000       0.666279        18.1304 
 405   0.0000       0.666707        18.1420 
 406   0.0000       0.669366        18.2144 
 407   0.0000       0.669699        18.2234 
 408   0.0000       0.671329        18.2678 
 409   0.0000       0.672042        18.2872 
 410   0.0000       0.673776        18.3344 
 411   0.0000       0.674121        18.3438 
 412   0.0000       0.679381        18.4869 
 413   0.0000       0.679729        18.4964 
 414   0.0000       0.681042        18.5321 
 415   0.0000       0.682825        18.5806 
 416   0.0000       0.683141        18.5892 
 417   0.0000       0.683424        18.5969 
 418   0.0000       0.689375        18.7588 
 419   0.0000       0.690296        18.7839 
 420   0.0000       0.691076        18.8051 
 421   0.0000       0.692250        18.8371 
 422   0.0000       0.695597        18.9282 
 423   0.0000       0.696188        18.9442 
 424   0.0000       0.699920        19.0458 
 425   0.0000       0.704212        19.1626 
 426   0.0000       0.706644        19.2288 
 427   0.0000       0.710735        19.3401 
 428   0.0000       0.711242        19.3539 
 429   0.0000       0.712427        19.3861 
 430   0.0000       0.715056        19.4577 
 431   0.0000       0.718792        19.5593 
 432   0.0000       0.719095        19.5676 
 433   0.0000       0.723398        19.6847 
 434   0.0000       0.727705        19.8019 
 435   0.0000       0.728116        19.8130 
 436   0.0000       0.730100        19.8670 
 437   0.0000       0.731531        19.9060 
 438   0.0000       0.731992        19.9185 
 439   0.0000       0.733534        19.9605 
 440   0.0000       0.737515        20.0688 
 441   0.0000       0.741297        20.1717 
 442   0.0000       0.742024        20.1915 
 443   0.0000       0.746608        20.3162 
 444   0.0000       0.746694        20.3186 
 445   0.0000       0.747859        20.3503 
 446   0.0000       0.747981        20.3536 
 447   0.0000       0.749598        20.3976 
 448   0.0000       0.749854        20.4046 
 449   0.0000       0.753338        20.4994 
 450   0.0000       0.753838        20.5130 
 451   0.0000       0.757389        20.6096 
 452   0.0000       0.758264        20.6334 
 453   0.0000       0.766347        20.8534 
 454   0.0000       0.769643        20.9431 
 455   0.0000       0.771033        20.9809 
 456   0.0000       0.775258        21.0958 
 457   0.0000       0.775386        21.0993 
 458   0.0000       0.777759        21.1639 
 459   0.0000       0.777993        21.1703 
 460   0.0000       0.780416        21.2362 
 461   0.0000       0.780818        21.2471 
 462   0.0000       0.783333        21.3156 
 463   0.0000       0.789874        21.4936 
 464   0.0000       0.790116        21.5002 
 465   0.0000       0.792390        21.5620 
 466   0.0000       0.792607        21.5679 
 467   0.0000       0.796123        21.6636 
 468   0.0000       0.800391        21.7798 
 469   0.0000       0.807597        21.9758 
 470   0.0000       0.808669        22.0050 
 471   0.0000       0.824971        22.4486 
 472   0.0000       0.825109        22.4524 
 473   0.0000       0.831098        22.6153 
 474   0.0000       0.831848        22.6357 
 475   0.0000       0.832379        22.6502 
 476   0.0000       0.832408        22.6510 
 477   0.0000       0.834801        22.7161 
 478   0.0000       0.841190        22.8900 
 479   0.0000       0.857723        23.3398 
 480   0.0000       0.865098        23.5405 
 481   0.0000       0.866061        23.5667 
 482   0.0000       0.867330        23.6012 
 483   0.0000       0.868520        23.6336 
 484   0.0000       0.870164        23.6784 
 485   0.0000       0.873965        23.7818 
 486   0.0000       0.890161        24.2225 
 487   0.0000       0.898100        24.4385 
 488   0.0000       0.899468        24.4758 
 489   0.0000       0.905001        24.6263 
 490   0.0000       0.917210        24.9586 
 491   0.0000       0.918836        25.0028 
 492   0.0000       0.929148        25.2834 
 493   0.0000       0.929529        25.2938 
 494   0.0000       0.935452        25.4550 
 495   0.0000       0.939140        25.5553 
 496   0.0000       0.940543        25.5935 
 497   0.0000       0.940574        25.5943 
 498   0.0000       0.962717        26.1968 
 499   0.0000       0.962828        26.1999 
 500   0.0000       0.963305        26.2129 
 501   0.0000       0.963632        26.2218 
 502   0.0000       0.969318        26.3765 
 503   0.0000       0.976731        26.5782 
 504   0.0000       0.989756        26.9326 
 505   0.0000       0.992884        27.0177 
 506   0.0000       1.003912        27.3178 
 507   0.0000       1.014477        27.6053 
 508   0.0000       1.022937        27.8355 
 509   0.0000       1.023124        27.8406 
 510   0.0000       1.030053        28.0292 
 511   0.0000       1.047513        28.5043 
 512   0.0000       1.055494        28.7215 
 513   0.0000       1.069232        29.0953 
 514   0.0000       1.070719        29.1357 
 515   0.0000       1.080608        29.4048 
 516   0.0000       1.080682        29.4068 
 517   0.0000       1.088223        29.6121 
 518   0.0000       1.088321        29.6147 
 519   0.0000       1.105282        30.0763 
 520   0.0000       1.112688        30.2778 
 521   0.0000       1.117018        30.3956 
 522   0.0000       1.117705        30.4143 
 523   0.0000       1.126282        30.6477 
 524   0.0000       1.134925        30.8829 
 525   0.0000       1.146714        31.2037 
 526   0.0000       1.146922        31.2093 
 527   0.0000       1.149264        31.2731 
 528   0.0000       1.157682        31.5021 
 529   0.0000       1.163448        31.6590 
 530   0.0000       1.180696        32.1284 
 531   0.0000       1.187324        32.3087 
 532   0.0000       1.191189        32.4139 
 533   0.0000       1.195515        32.5316 
 534   0.0000       1.200917        32.6786 
 535   0.0000       1.202227        32.7143 
 536   0.0000       1.204065        32.7643 
 537   0.0000       1.208202        32.8768 
 538   0.0000       1.208502        32.8850 
 539   0.0000       1.211247        32.9597 
 540   0.0000       1.211597        32.9692 
 541   0.0000       1.217325        33.1251 
 542   0.0000       1.217788        33.1377 
 543   0.0000       1.221651        33.2428 
 544   0.0000       1.223813        33.3017 
 545   0.0000       1.225834        33.3566 
 546   0.0000       1.226279        33.3688 
 547   0.0000       1.234306        33.5872 
 548   0.0000       1.234536        33.5934 
 549   0.0000       1.238162        33.6921 
 550   0.0000       1.241280        33.7770 
 551   0.0000       1.241595        33.7855 
 552   0.0000       1.242646        33.8141 
 553   0.0000       1.247009        33.9328 
 554   0.0000       1.247210        33.9383 
 555   0.0000       1.252059        34.0703 
 556   0.0000       1.252652        34.0864 
 557   0.0000       1.256250        34.1843 
 558   0.0000       1.256590        34.1936 
 559   0.0000       1.260557        34.3015 
 560   0.0000       1.262524        34.3550 
 561   0.0000       1.267327        34.4857 
 562   0.0000       1.267729        34.4967 
 563   0.0000       1.268126        34.5075 
 564   0.0000       1.271049        34.5870 
 565   0.0000       1.278727        34.7959 
 566   0.0000       1.279154        34.8076 
 567   0.0000       1.281993        34.8848 
 568   0.0000       1.282693        34.9038 
 569   0.0000       1.287329        35.0300 
 570   0.0000       1.287368        35.0311 
 571   0.0000       1.291316        35.1385 
 572   0.0000       1.294230        35.2178 
 573   0.0000       1.294861        35.2350 
 574   0.0000       1.302981        35.4559 
 575   0.0000       1.304991        35.5106 
 576   0.0000       1.305866        35.5344 
 577   0.0000       1.312253        35.7082 
 578   0.0000       1.312386        35.7118 
 579   0.0000       1.315882        35.8070 
 580   0.0000       1.316634        35.8274 
 581   0.0000       1.318740        35.8847 
 582   0.0000       1.319929        35.9171 
 583   0.0000       1.324009        36.0281 
 584   0.0000       1.326771        36.1033 
 585   0.0000       1.327337        36.1187 
 586   0.0000       1.332174        36.2503 
 587   0.0000       1.333651        36.2905 
 588   0.0000       1.339506        36.4498 
 589   0.0000       1.341622        36.5074 
 590   0.0000       1.348231        36.6872 
 591   0.0000       1.350502        36.7490 
 592   0.0000       1.353549        36.8319 
 593   0.0000       1.357241        36.9324 
 594   0.0000       1.379544        37.5393 
 595   0.0000       1.379545        37.5393 
 596   0.0000       1.386621        37.7319 
 597   0.0000       1.386770        37.7359 
 598   0.0000       1.405639        38.2494 
 599   0.0000       1.407582        38.3022 
 600   0.0000       1.428007        38.8580 
 601   0.0000       1.435864        39.0718 
 602   0.0000       1.436051        39.0769 
 603   0.0000       1.442535        39.2534 
 604   0.0000       1.442641        39.2562 
 605   0.0000       1.478142        40.2223 
 606   0.0000       1.495523        40.6953 
 607   0.0000       1.511953        41.1423 
 608   0.0000       1.514066        41.1998 
 609   0.0000       1.550126        42.1811 
 610   0.0000       1.569940        42.7202 
 611   0.0000       1.570477        42.7349 
 612   0.0000       1.582580        43.0642 
 613   0.0000       1.582636        43.0657 
 614   0.0000       1.616690        43.9924 
 615   0.0000       1.616752        43.9941 
 616   0.0000       1.626280        44.2533 
 617   0.0000       1.639199        44.6049 
 618   0.0000       1.639895        44.6238 
 619   0.0000       1.644090        44.7380 
 620   0.0000       1.651763        44.9468 
 621   0.0000       1.657184        45.0943 
 622   0.0000       1.661194        45.2034 
 623   0.0000       1.664186        45.2848 
 624   0.0000       1.667774        45.3825 
 625   0.0000       1.670090        45.4455 
 626   0.0000       1.673762        45.5454 
 627   0.0000       1.673765        45.5454 
 628   0.0000       1.677899        45.6579 
 629   0.0000       1.678002        45.6608 
 630   0.0000       1.690860        46.0106 
 631   0.0000       1.694177        46.1009 
 632   0.0000       1.694615        46.1128 
 633   0.0000       1.698714        46.2244 
 634   0.0000       1.700045        46.2606 
 635   0.0000       1.704442        46.3802 
 636   0.0000       1.705415        46.4067 
 637   0.0000       1.708285        46.4848 
 638   0.0000       1.709286        46.5120 
 639   0.0000       1.712831        46.6085 
 640   0.0000       1.713021        46.6137 
 641   0.0000       1.713652        46.6308 
 642   0.0000       1.716143        46.6986 
 643   0.0000       1.716907        46.7194 
 644   0.0000       1.720332        46.8126 
 645   0.0000       1.720750        46.8240 
 646   0.0000       1.723383        46.8956 
 647   0.0000       1.733361        47.1672 
 648   0.0000       1.733435        47.1692 
 649   0.0000       1.734970        47.2109 
 650   0.0000       1.735243        47.2184 
 651   0.0000       1.740627        47.3649 
 652   0.0000       1.742424        47.4138 
 653   0.0000       1.743304        47.4377 
 654   0.0000       1.746300        47.5192 
 655   0.0000       1.747864        47.5618 
 656   0.0000       1.751010        47.6474 
 657   0.0000       1.751776        47.6682 
 658   0.0000       1.755634        47.7732 
 659   0.0000       1.758327        47.8465 
 660   0.0000       1.758906        47.8623 
 661   0.0000       1.760586        47.9080 
 662   0.0000       1.764210        48.0066 
 663   0.0000       1.767229        48.0887 
 664   0.0000       1.768427        48.1213 
 665   0.0000       1.769793        48.1585 
 666   0.0000       1.769855        48.1602 
 667   0.0000       1.774417        48.2843 
 668   0.0000       1.774896        48.2974 
 669   0.0000       1.783097        48.5205 
 670   0.0000       1.783490        48.5312 
 671   0.0000       1.784126        48.5485 
 672   0.0000       1.784716        48.5646 
 673   0.0000       1.789532        48.6956 
 674   0.0000       1.794711        48.8366 
 675   0.0000       1.803981        49.0888 
 676   0.0000       1.804224        49.0954 
 677   0.0000       1.806802        49.1656 
 678   0.0000       1.807863        49.1944 
 679   0.0000       1.812640        49.3244 
 680   0.0000       1.815651        49.4064 
 681   0.0000       1.819703        49.5166 
 682   0.0000       1.820158        49.5290 
 683   0.0000       1.820286        49.5325 
 684   0.0000       1.821787        49.5734 
 685   0.0000       1.822413        49.5904 
 686   0.0000       1.823989        49.6333 
 687   0.0000       1.826617        49.7048 
 688   0.0000       1.838250        50.0213 
 689   0.0000       1.838302        50.0228 
 690   0.0000       1.844926        50.2030 
 691   0.0000       1.847258        50.2664 
 692   0.0000       1.852457        50.4079 
 693   0.0000       1.860219        50.6191 
 694   0.0000       1.872785        50.9611 
 695   0.0000       1.877002        51.0758 
 696   0.0000       1.895298        51.5737 
 697   0.0000       1.895380        51.5759 
 698   0.0000       1.899918        51.6994 
 699   0.0000       1.905085        51.8400 
 700   0.0000       1.911696        52.0199 
 701   0.0000       1.913681        52.0739 
 702   0.0000       1.914785        52.1039 
 703   0.0000       1.914924        52.1077 
 704   0.0000       1.921169        52.2777 
 705   0.0000       1.921510        52.2869 
 706   0.0000       1.934356        52.6365 
 707   0.0000       1.940700        52.8091 
 708   0.0000       1.943678        52.8902 
 709   0.0000       1.946332        52.9624 
 710   0.0000       1.946423        52.9649 
 711   0.0000       1.947544        52.9954 
 712   0.0000       1.956976        53.2520 
 713   0.0000       1.958398        53.2907 
 714   0.0000       1.958937        53.3054 
 715   0.0000       1.963285        53.4237 
 716   0.0000       1.966376        53.5078 
 717   0.0000       1.966462        53.5101 
 718   0.0000       1.971851        53.6568 
 719   0.0000       1.976595        53.7859 
 720   0.0000       1.976655        53.7875 
 721   0.0000       1.985418        54.0260 
 722   0.0000       1.987997        54.0962 
 723   0.0000       1.989441        54.1354 
 724   0.0000       1.993221        54.2383 
 725   0.0000       1.993854        54.2555 
 726   0.0000       1.999243        54.4022 
 727   0.0000       2.001659        54.4679 
 728   0.0000       2.003130        54.5079 
 729   0.0000       2.006399        54.5969 
 730   0.0000       2.010844        54.7179 
 731   0.0000       2.017909        54.9101 
 732   0.0000       2.025664        55.1211 
 733   0.0000       2.031503        55.2800 
 734   0.0000       2.037245        55.4363 
 735   0.0000       2.038423        55.4683 
 736   0.0000       2.047329        55.7106 
 737   0.0000       2.055817        55.9416 
 738   0.0000       2.058967        56.0273 
 739   0.0000       2.063379        56.1474 
 740   0.0000       2.064058        56.1659 
 741   0.0000       2.064473        56.1772 
 742   0.0000       2.065855        56.2148 
 743   0.0000       2.066603        56.2351 
 744   0.0000       2.067900        56.2704 
 745   0.0000       2.077051        56.5194 
 746   0.0000       2.079722        56.5921 
 747   0.0000       2.081766        56.6477 
 748   0.0000       2.082347        56.6635 
 749   0.0000       2.090998        56.8989 
 750   0.0000       2.107845        57.3574 
 751   0.0000       2.110754        57.4365 
 752   0.0000       2.122344        57.7519 
 753   0.0000       2.124359        57.8068 
 754   0.0000       2.126884        57.8755 
 755   0.0000       2.128969        57.9322 
 756   0.0000       2.129287        57.9408 
 757   0.0000       2.132583        58.0305 
 758   0.0000       2.139599        58.2214 
 759   0.0000       2.139638        58.2225 
 760   0.0000       2.140317        58.2410 
 761   0.0000       2.143651        58.3317 
 762   0.0000       2.149951        58.5032 
 763   0.0000       2.152057        58.5605 
 764   0.0000       2.152798        58.5806 
 765   0.0000       2.155338        58.6497 
 766   0.0000       2.159839        58.7722 
 767   0.0000       2.169905        59.0461 
 768   0.0000       2.171239        59.0824 
 769   0.0000       2.172753        59.1236 
 770   0.0000       2.177062        59.2409 
 771   0.0000       2.185331        59.4659 
 772   0.0000       2.185617        59.4737 
 773   0.0000       2.185904        59.4815 
 774   0.0000       2.188517        59.5526 
 775   0.0000       2.193908        59.6993 
 776   0.0000       2.196102        59.7590 
 777   0.0000       2.202542        59.9342 
 778   0.0000       2.208169        60.0873 
 779   0.0000       2.210853        60.1604 
 780   0.0000       2.212069        60.1935 
 781   0.0000       2.213368        60.2288 
 782   0.0000       2.221364        60.4464 
 783   0.0000       2.223924        60.5161 
 784   0.0000       2.227352        60.6093 
 785   0.0000       2.233170        60.7676 
 786   0.0000       2.236145        60.8486 
 787   0.0000       2.240487        60.9667 
 788   0.0000       2.242676        61.0263 
 789   0.0000       2.245515        61.1036 
 790   0.0000       2.261098        61.5276 
 791   0.0000       2.283552        62.1386 
 792   0.0000       2.289468        62.2996 
 793   0.0000       2.290480        62.3271 
 794   0.0000       2.293598        62.4120 
 795   0.0000       2.298407        62.5428 
 796   0.0000       2.303927        62.6930 
 797   0.0000       2.304364        62.7049 
 798   0.0000       2.305179        62.7271 
 799   0.0000       2.306044        62.7507 
 800   0.0000       2.307772        62.7977 
 801   0.0000       2.308724        62.8236 
 802   0.0000       2.311689        62.9043 
 803   0.0000       2.314148        62.9712 
 804   0.0000       2.318532        63.0905 
 805   0.0000       2.326373        63.3038 
 806   0.0000       2.333439        63.4961 
 807   0.0000       2.339829        63.6700 
 808   0.0000       2.340982        63.7014 
 809   0.0000       2.342036        63.7300 
 810   0.0000       2.345848        63.8338 
 811   0.0000       2.347672        63.8834 
 812   0.0000       2.347923        63.8902 
 813   0.0000       2.348737        63.9124 
 814   0.0000       2.354039        64.0567 
 815   0.0000       2.359772        64.2127 
 816   0.0000       2.368960        64.4627 
 817   0.0000       2.379875        64.7597 
 818   0.0000       2.384249        64.8787 
 819   0.0000       2.390756        65.0558 
 820   0.0000       2.404503        65.4299 
 821   0.0000       2.404648        65.4338 
 822   0.0000       2.409780        65.5734 
 823   0.0000       2.411570        65.6222 
 824   0.0000       2.413115        65.6642 
 825   0.0000       2.419786        65.8457 
 826   0.0000       2.419851        65.8475 
 827   0.0000       2.427864        66.0655 
 828   0.0000       2.429572        66.1120 
 829   0.0000       2.473350        67.3033 
 830   0.0000       2.477869        67.4262 
 831   0.0000       2.480806        67.5062 
 832   0.0000       2.497942        67.9725 
 833   0.0000       2.497987        67.9737 
 834   0.0000       2.514036        68.4104 
 835   0.0000       2.527718        68.7827 
 836   0.0000       2.528712        68.8097 
 837   0.0000       2.538461        69.0750 
 838   0.0000       2.544548        69.2407 
 839   0.0000       2.550636        69.4063 
 840   0.0000       2.559856        69.6572 
 841   0.0000       2.563033        69.7437 
 842   0.0000       2.572582        70.0035 
 843   0.0000       2.580412        70.2166 
 844   0.0000       2.581176        70.2374 
 845   0.0000       2.589693        70.4691 
 846   0.0000       2.593882        70.5831 
 847   0.0000       2.602831        70.8266 
 848   0.0000       2.603049        70.8326 
 849   0.0000       2.603899        70.8557 
 850   0.0000       2.608227        70.9735 
 851   0.0000       2.612796        71.0978 
 852   0.0000       2.621932        71.3464 
 853   0.0000       2.624243        71.4093 
 854   0.0000       2.625522        71.4441 
 855   0.0000       2.630971        71.5924 
 856   0.0000       2.631767        71.6140 
 857   0.0000       2.640986        71.8649 
 858   0.0000       2.644600        71.9632 
 859   0.0000       2.649083        72.0852 
 860   0.0000       2.652989        72.1915 
 861   0.0000       2.657303        72.3089 
 862   0.0000       2.671732        72.7015 
 863   0.0000       2.673546        72.7509 
 864   0.0000       2.675986        72.8173 
 865   0.0000       2.678068        72.8739 
 866   0.0000       2.693181        73.2852 
 867   0.0000       2.696920        73.3869 
 868   0.0000       2.697087        73.3915 
 869   0.0000       2.698694        73.4352 
 870   0.0000       2.705887        73.6309 
 871   0.0000       2.709334        73.7247 
 872   0.0000       2.723755        74.1171 
 873   0.0000       2.727147        74.2095 
 874   0.0000       2.728738        74.2527 
 875   0.0000       2.737536        74.4921 
 876   0.0000       2.738005        74.5049 
 877   0.0000       2.743524        74.6551 
 878   0.0000       2.748011        74.7772 
 879   0.0000       2.748064        74.7786 
 880   0.0000       2.748132        74.7805 
 881   0.0000       2.748570        74.7924 
 882   0.0000       2.750705        74.8505 
 883   0.0000       2.750950        74.8571 
 884   0.0000       2.752716        74.9052 
 885   0.0000       2.761508        75.1444 
 886   0.0000       2.761567        75.1461 
 887   0.0000       2.781259        75.6819 
 888   0.0000       2.781969        75.7012 
 889   0.0000       2.793962        76.0276 
 890   0.0000       2.794121        76.0319 
 891   0.0000       2.804251        76.3075 
 892   0.0000       2.810419        76.4754 
 893   0.0000       2.810654        76.4818 
 894   0.0000       2.846216        77.4495 
 895   0.0000       2.850178        77.5573 
 896   0.0000       2.851465        77.5923 
 897   0.0000       2.855717        77.7080 
 898   0.0000       2.865244        77.9673 
 899   0.0000       2.879962        78.3678 
 900   0.0000       2.880087        78.3712 
 901   0.0000       2.884602        78.4940 
 902   0.0000       2.884640        78.4950 
 903   0.0000       2.898628        78.8757 
 904   0.0000       2.899001        78.8858 
 905   0.0000       2.900953        78.9389 
 906   0.0000       2.904277        79.0294 
 907   0.0000       2.914291        79.3019 
 908   0.0000       2.919358        79.4398 
 909   0.0000       2.932925        79.8089 
 910   0.0000       2.966673        80.7273 
 911   0.0000       2.969559        80.8058 
 912   0.0000       2.979310        81.0711 
 913   0.0000       2.983575        81.1872 
 914   0.0000       3.000888        81.6583 
 915   0.0000       3.004885        81.7671 
 916   0.0000       3.006797        81.8191 
 917   0.0000       3.050991        83.0217 
 918   0.0000       3.051176        83.0267 
 919   0.0000       3.053305        83.0847 
 920   0.0000       3.066688        83.4488 
 921   0.0000       3.087135        84.0052 
 922   0.0000       3.104761        84.4848 
 923   0.0000       3.104840        84.4870 
 924   0.0000       3.114049        84.7376 
 925   0.0000       3.130135        85.1753 
 926   0.0000       3.131888        85.2230 
 927   0.0000       3.132107        85.2290 
 928   0.0000       3.134740        85.3006 
 929   0.0000       3.146227        85.6132 
 930   0.0000       3.166194        86.1565 
 931   0.0000       3.176472        86.4362 
 932   0.0000       3.178580        86.4935 
 933   0.0000       3.213226        87.4363 
 934   0.0000       3.285157        89.3937 
 935   0.0000       3.298817        89.7654 
 936   0.0000       3.312369        90.1342 
 937   0.0000       3.331254        90.6480 
 938   0.0000       3.350718        91.1777 
 939   0.0000       3.354265        91.2742 
 940   0.0000       3.371879        91.7535 
 941   0.0000       3.380418        91.9858 
 942   0.0000       3.446290        93.7783 
 943   0.0000       3.447518        93.8117 
 944   0.0000       3.484142        94.8083 
 945   0.0000       3.525872        95.9439 
 946   0.0000       3.578184        97.3673 
 947   0.0000       3.579697        97.4085 
 948   0.0000       3.657212        99.5178 
 949   0.0000       3.661434        99.6327 
 950   0.0000       3.671759        99.9136 
 951   0.0000       3.694266       100.5261 
 952   0.0000       3.723359       101.3177 
 953   0.0000       3.723378       101.3183 
Total SCF time: 0 days 0 hours 6 min 47 sec 

Maximum memory used throughout the entire SCF-calculation: 313.4 MB


           ************************************************************
           *        Program running with 20 parallel MPI-processes    *
           *              working on a common directory               *
           ************************************************************
------------------------------------------------------------------------------
                          ORCA TD-DFT CALCULATION
------------------------------------------------------------------------------

Input orbitals are from        ... S0_TDA_SP.gbw
CI-vector output               ... S0_TDA_SP.cis
Tamm-Dancoff approximation     ... deactivated
RPA-Integral strategy          ... AO-integrals
Integral handling              ... AO integral Direct
Max. core memory used          ... 4000 MB
Reference state                ... RHF
Generation of triplets         ... on
Follow IRoot                   ... off
Number of operators            ... 1
Orbital ranges used for CIS calculation:
 Operator 0:  Orbitals  56...186  to 187...953
XAS localization array:
 Operator 0:  Orbitals  -1... -1

-------------------
XC-INTEGRATION GRID
-------------------

General Integration Accuracy     IntAcc      ... 3.467
Radial Grid Type                 RadialGrid  ... OptM3 with GC (2021)
Angular Grid (max. ang.)         AngularGrid ... 3 (Lebedev-194)
Angular grid pruning method      GridPruning ... 4 (adaptive)
Weight generation scheme         WeightScheme... Becke
Basis function cutoff            BFCut       ... 1.0000e-11
Integration weight cutoff        WCut        ... 1.0000e-14
Angular grids for H and He will be reduced by one unit
Partially contracted basis set               ... off
Rotationally invariant grid construction     ... off

Total number of grid points                  ...   171998
Total number of batches                      ...     2732
Average number of points per batch           ...       62
Average number of grid points per atom       ...     1911

---------------------
COSX-INTEGRATION GRID
---------------------

General Integration Accuracy     IntAcc      ... 3.067
Radial Grid Type                 RadialGrid  ... OptM3 with GC (2021)
Angular Grid (max. ang.)         AngularGrid ... 2 (Lebedev-110)
Angular grid pruning method      GridPruning ... 4 (adaptive)
Weight generation scheme         WeightScheme... Becke
Basis function cutoff            BFCut       ... 1.0000e-11
Integration weight cutoff        WCut        ... 1.0000e-14
Angular grids for H and He will be reduced by one unit
Partially contracted basis set               ... on
Rotationally invariant grid construction     ... off

Total number of grid points                  ...    68869
Total number of batches                      ...     1125
Average number of points per batch           ...       61
Average number of grid points per atom       ...      765

---------------
TD-DFT XC SETUP
---------------

DFT calculation                         ... on
Name of the grid file                   ... S0_TDA_SP.grid_cis.tmp
Exchange functional (TD-DFT)            ... PBE
[...]
   0   3   13519.6    739.7   0.000000000   0.00000 (  0.00000, -0.00000) (  0.00000, -0.00000) ( -0.00000,  0.00000)
   0   4   17017.5    587.6   0.000000001   0.00000 ( -0.00001, -0.00000) ( -0.00000, -0.00000) ( -0.00000, -0.00000)
   0   5   17017.5    587.6   0.000000000   0.00000 (  0.00000,  0.00000) (  0.00000,  0.00000) ( -0.00000, -0.00000)
   0   6   17017.5    587.6   0.000000000   0.00000 ( -0.00000,  0.00000) (  0.00000, -0.00000) (  0.00000, -0.00000)
   0   7   19805.8    504.9   0.000000000   0.00000 ( -0.00000, -0.00000) ( -0.00000, -0.00000) (  0.00000,  0.00000)
   0   8   19805.8    504.9   0.000000000   0.00000 ( -0.00000,  0.00000) ( -0.00000,  0.00000) (  0.00000, -0.00000)
   0   9   19805.8    504.9   0.000000000   0.00000 ( -0.00000, -0.00000) ( -0.00000, -0.00000) (  0.00000,  0.00000)
   0  10   20427.0    489.5   0.481285986   0.06719 (  0.25903, -0.00970) (  0.00002, -0.00000) (  0.00110, -0.00004)
   0  11   21704.3    460.7   0.000000000   0.00000 ( -0.00000, -0.00000) ( -0.00000, -0.00000) ( -0.00000, -0.00000)
   0  12   21704.3    460.7   0.000000110   0.00000 (  0.00013,  0.00001) (  0.00000,  0.00000) (  0.00000,  0.00000)
   0  13   21704.4    460.7   0.000000000   0.00000 (  0.00000,  0.00000) (  0.00000,  0.00001) ( -0.00000, -0.00000)
   0  14   23157.7    431.8   0.000000000   0.00000 (  0.00000, -0.00000) (  0.00000, -0.00000) (  0.00000, -0.00000)
   0  15   23157.7    431.8   0.000000000   0.00000 ( -0.00000, -0.00000) (  0.00000,  0.00000) ( -0.00000, -0.00000)
   0  16   23157.7    431.8   0.000000000   0.00000 ( -0.00000, -0.00000) ( -0.00000, -0.00000) ( -0.00000, -0.00000)
   0  17   23215.3    430.7   0.001379658   0.00022 ( -0.00000,  0.00000) ( -0.00093,  0.01477) (  0.00000, -0.00000)
   0  18   23986.9    416.9   0.652819253   0.10702 (  0.31371, -0.09279) (  0.00002, -0.00000) (  0.00037, -0.00011)
   0  19   25666.1    389.6   0.479777561   0.08416 (  0.28998, -0.00819) (  0.00005, -0.00000) (  0.00150, -0.00004)
   0  20   26039.2    384.0   0.000022002   0.00000 ( -0.00001,  0.00105) ( -0.00002,  0.00168) (  0.00000, -0.00002)

-------------------------------------------------------------------------------------------------------
                                     SOC CORRECTED CD SPECTRUM*  
-------------------------------------------------------------------------------------------------------
   State    Energy  Wavelength      R               MX                    MY                    MZ  
            (cm-1)     (nm)      (1e40*sgs)         (au)                  (au)                  (au) 
-------------------------------------------------------------------------------------------------------
   0   1   13519.6    739.7      0.00000 (  0.00000,  0.00004) ( -0.00000, -0.00000) ( -0.00000, -0.00001)
   0   2   13519.6    739.7      0.00000 ( -0.00000, -0.00000) ( -0.00000, -0.00000) (  0.00000,  0.00000)
   0   3   13519.6    739.7     -0.00000 ( -0.00000,  0.00000) (  0.00001, -0.00001) (  0.00000, -0.00000)
   0   4   17017.5    587.6      0.00000 (  0.00000,  0.00000) ( -0.00000, -0.00000) ( -0.00003, -0.00000)
   0   5   17017.5    587.6     -0.00000 ( -0.00000, -0.00000) (  0.00000,  0.00000) (  0.00000,  0.00000)
   0   6   17017.5    587.6     -0.00000 (  0.00000, -0.00000) (  0.00001, -0.00012) (  0.00000, -0.00000)
   0   7   19805.8    504.9      0.00000 (  0.00000,  0.00001) (  0.00000,  0.00000) ( -0.00000, -0.00000)
   0   8   19805.8    504.9      0.00000 (  0.00000, -0.00004) ( -0.00000,  0.00000) ( -0.00000,  0.00001)
   0   9   19805.8    504.9     -0.00000 (  0.00000,  0.00000) (  0.00000,  0.00002) ( -0.00000, -0.00000)
   0  10   20427.0    489.5    -21.87526 ( -0.01462,  0.00055) (  0.00197, -0.00007) (  0.71816, -0.02689)
   0  11   21704.3    460.7     -0.00000 (  0.00000,  0.00000) ( -0.00000, -0.00000) ( -0.00001, -0.00000)
   0  12   21704.3    460.7     -0.00001 ( -0.00001, -0.00000) (  0.00000,  0.00000) (  0.00031,  0.00002)
   0  13   21704.4    460.7      0.00001 ( -0.00000, -0.00000) (  0.00000,  0.00001) (  0.00000,  0.00000)
   0  14   23157.7    431.8      0.00001 (  0.00000, -0.00000) ( -0.00000,  0.00005) (  0.00000, -0.00000)
   0  15   23157.7    431.8     -0.00000 ( -0.00003, -0.00000) (  0.00000,  0.00000) ( -0.00001, -0.00000)
   0  16   23157.7    431.8     -0.00000 ( -0.00000, -0.00000) ( -0.00000, -0.00000) ( -0.00000, -0.00000)
   0  17   23215.3    430.7      0.87040 (  0.00000, -0.00003) (  0.00019, -0.00309) (  0.00001, -0.00016)
   0  18   23986.9    416.9    -59.31262 ( -0.03347,  0.00990) (  0.00211, -0.00063) (  0.61007, -0.18045)
   0  19   25666.1    389.6     13.34965 (  0.00765, -0.00022) (  0.00308, -0.00009) (  0.79203, -0.02237)
   0  20   26039.2    384.0     -2.46136 ( -0.00000,  0.00000) (  0.00343, -0.27689) ( -0.00001,  0.00110)

*The complex numbers are printed as (real, imaginary)

The electronic components of the SOC ground state dipole moment in a.u. are:
           X                     Y                     Z
(  0.00009, -0.00000) ( -0.15653, -0.00000) (  0.01178, -0.00000)

Total run time:     3300.975 sec

           *** ORCA-CIS/TD-DFT FINISHED WITHOUT ERROR ***

Maximum memory used throughout the entire CIS-calculation: 1130.5 MB

---------------------------
SOC CIS/TD-DFT TOTAL ENERGY
---------------------------

    E(SCF)        =  -2220.760306176 Eh
    E(SOC CIS)    =      0.061599620 Eh (SOC Root  1)
    ----------------------------- ---------
    E(tot)        =  -2220.698706556 Eh



-------------------------------------------------------------------------------
                          DFT DISPERSION CORRECTION                            
                                                                               
                              DFTD3 V3.1  Rev 1                                
                          USING Becke-Johnson damping                          
-------------------------------------------------------------------------------
-------------------------   ----------------
Dispersion correction           -0.121719392
-------------------------   ----------------


-------------------------   --------------------
FINAL SINGLE POINT ENERGY     -2220.820425948094
-------------------------   --------------------



           ************************************************************
           *        Program running with 20 parallel MPI-processes    *
           *              working on a common directory               *
           ************************************************************
------------------------------------------------------------------------------
                         ORCA SCF GRADIENT CALCULATION
------------------------------------------------------------------------------


------------------------
TD-DFT GRADIENT XC SETUP
------------------------

Building densities                     ... done
Calculating rho(r) on the grid         ... done
Building xc-kernel on the grid         ... done
Building xc 3rd derivative on the grid      ... done
                *** TD-DFT GRADIENT CALCULATION INITIALIZED ***

-------------------
TD-DFT GRADIENT
-------------------

Reference wavefunction             ... RHF
State of interest                  ... 1
Basis dimension                    ... 954
DFT-XC contribution needed         ... YES
RI-approximation                   ... ON
CIS-vectors being read from        ... S0_TDA_SP.cis

 => Number of Vectors found: 20
 => Orbital Window: 56...186 -> 187...953

Reading the RPA file                     ... done
Norm of the RPA vector                   ... 1.000000000
Making the RPA (pseudo)densities         ... done
Making operators G(D) and Q(T)           ... done
Transforming the Fock operators          ... done
Making the frozen-core relaxed density   ... done
Constructing the G(H) operator           ... done
Transforming the G(H) operator           ... done
Calculating the RPA Lagrangian           ... done
Solving the Z-vector equations           ... done
Finalizing the relaxed density           ... done
Storing the relaxed density              ... done
Constructing the G(Z) operator           ... done
Transforming the G(Z) operator           ... done
Making the W-matrix                      ... done
Finalizing the W-matrix                  ... done
Transforming the W-matrix                ... done
Nuclear repulsion gradient               ... done
One-Electron gradient                    ... done
Dispersion correction                    ... done
Prescreening matrices                    ... done
COSX-gradient                            ... done
Coulomb gradient (RI)                    ... done
Exchange-Correlation gradient            ... done

                 ---------------------------
                 EXCITED STATE GRADIENT DONE
                 ---------------------------

------------------
CARTESIAN GRADIENT
------------------

   1   O   :    0.000001600   -0.038313905   -0.000008779
   2   C   :   -0.000001274    0.038628208    0.000153707
   3   C   :    0.015349445   -0.027800138    0.000003558
   4   C   :   -0.004537591    0.001367644    0.000087699
   5   C   :   -0.010065811   -0.019041201   -0.000040010
   6   C   :    0.016812608    0.013130814   -0.000430842
   7   C   :   -0.013457224   -0.014576774    0.000302598
   8   C   :    0.012425171    0.003314736   -0.000000572
   9   C   :   -0.004464438   -0.005562380    0.000475209
  10   C   :    0.004586269   -0.002110245   -0.001128930
  11   C   :   -0.004002127   -0.000189335   -0.000113227
  12   N   :    0.002648846    0.000541393    0.000008025
  13   C   :   -0.000477661   -0.001288285    0.000313250
  14   C   :    0.000435477    0.000117256   -0.000048883
  15   C   :   -0.000239212   -0.000393144   -0.000305047
  16   C   :    0.001246232   -0.000317786   -0.000588992
  17   C   :   -0.000165569    0.001480814    0.001528081
  18   C   :   -0.000481778   -0.001391729   -0.001154909
  19   C   :   -0.000988674    0.001084209    0.001178523
  20   C   :    0.000458422   -0.001405017   -0.001523964
  21   C   :    0.001000735    0.000782482    0.000588168
  22   C   :   -0.000372977    0.000235978    0.000278441
  23   C   :    0.000408425    0.000081094    0.000052618
  24   C   :   -0.000963378    0.000989933   -0.000280274
  25   C   :    0.002509235    0.003175228    0.001140198
  26   C   :   -0.005627661    0.003066107   -0.000417383
  27   C   :    0.013380137    0.023235758   -0.000034498
  28   C   :   -0.020629937    0.007346844   -0.000224530
  29   C   :    0.038520351    0.012567996    0.000418616
  30   C   :   -0.038520539    0.012566426   -0.000423415
  31   C   :    0.020627280    0.007347373    0.000228188
  32   C   :   -0.013381689    0.023235198   -0.000017997
  33   C   :    0.010066873   -0.019041135    0.000100512
  34   C   :   -0.016813467    0.013128012    0.000399527
  35   C   :    0.013456459   -0.014573360   -0.000262156
  36   C   :   -0.012421824    0.003312918   -0.000019219
  37   C   :    0.004464295   -0.005560909   -0.000462564
  38   C   :   -0.004586430   -0.002109213    0.001124346
  39   C   :    0.004000907   -0.000187395    0.000120410
  40   N   :   -0.002649573    0.000537752   -0.000014223
  41   C   :    0.000477616   -0.001286690   -0.000311721
  42   C   :   -0.000435525    0.000115120    0.000047902
  43   C   :    0.000238710   -0.000391927    0.000305324
  44   C   :   -0.001246782   -0.000317778    0.000586956
  45   C   :    0.000167968    0.001478968   -0.001529304
  46   C   :    0.000480364   -0.001389192    0.001157809
  47   C   :    0.000989817    0.001081876   -0.001177319
  48   C   :   -0.000460117   -0.001402686    0.001524027
  49   C   :   -0.001000133    0.000781306   -0.000590190
  50   C   :    0.000373690    0.000235865   -0.000279066
  51   C   :   -0.000408276    0.000080840   -0.000053789
  52   C   :    0.000963452    0.000991923    0.000282456
  53   C   :   -0.002506851    0.003172899   -0.001148106
  54   C   :    0.005624626    0.003065730    0.000421543
  55   C   :    0.004538312    0.001368124   -0.000110586
  56   C   :   -0.015347593   -0.027802876   -0.000113720
  57   H   :    0.000853560   -0.000333763    0.000011813
  58   H   :   -0.000164095    0.000420800    0.000042897
  59   H   :   -0.000002870    0.000515669    0.000145795
  60   H   :   -0.000143270    0.000230258    0.000233055
  61   H   :    0.000135026   -0.000081877    0.000109384
  62   H   :   -0.000026070    0.000096103   -0.000057025
  63   H   :   -0.000042482    0.000077651    0.000098678
  64   H   :    0.000041764    0.000045660    0.000018529
  65   H   :    0.000066609    0.000032645   -0.000061419
  66   H   :    0.000072754   -0.000006026    0.000068392
  67   H   :    0.000057724   -0.000022848   -0.000018643
  68   H   :   -0.000007742   -0.000091431   -0.000098610
  69   H   :    0.000009263   -0.000091729    0.000046485
  70   H   :    0.000048361    0.000100866   -0.000096021
  71   H   :   -0.000018312   -0.000216454   -0.000200965
  72   H   :    0.000223421    0.000386161    0.000012644
  73   H   :   -0.000373708    0.000357067   -0.000003249
  74   H   :    0.000373672    0.000357204   -0.000001783
  75   H   :   -0.000223398    0.000386002   -0.000015324
  76   H   :    0.000163909    0.000421040   -0.000048589
  77   H   :    0.000003508    0.000515138   -0.000147899
  78   H   :    0.000143442    0.000230000   -0.000232572
  79   H   :   -0.000135018   -0.000081784   -0.000109799
  80   H   :    0.000026329    0.000096226    0.000057390
  81   H   :    0.000042668    0.000077641   -0.000098655
  82   H   :   -0.000041687    0.000045569   -0.000018642
  83   H   :   -0.000066683    0.000032683    0.000061033
  84   H   :   -0.000072554   -0.000006164   -0.000068642
  85   H   :   -0.000057691   -0.000022773    0.000018593
  86   H   :    0.000007643   -0.000091276    0.000098685
  87   H   :   -0.000008873   -0.000091921   -0.000046790
  88   H   :   -0.000049019    0.000101108    0.000096392
  89   H   :    0.000018684   -0.000216208    0.000200447
  90   H   :   -0.000853714   -0.000333811   -0.000009507

Difference to translation invariance:
           :    0.0000003604    0.0000311494   -0.0000004454

Difference to rotation invariance:
           :    0.0000013736   -0.0004931886    0.0000004898

Norm of the cartesian gradient     ...    0.1184635666
RMS gradient                       ...    0.0072094631
MAX gradient                       ...    0.0386282081

------------------------------------------------------------------------------
                 RELAXED RPA/TD-DFT DENSITY POPULATION ANALYSIS
                                    IROOT 1
------------------------------------------------------------------------------
------------------------------------------------------------------------------
                           ORCA POPULATION ANALYSIS
------------------------------------------------------------------------------
Input electron density              ... S0_TDA_SP.cisp
BaseName (.gbw .S,...)              ... S0_TDA_SP

-------
TIMINGS
-------

Total TD-DFT gradient time         ...      243.095 sec

Fock matrix formation       ....      54.023 sec  ( 22.2%)
  Coulomb formation         ....      49.201 sec  ( 91.1% of F)
  RI-J                      ....       4.736 sec  (  8.8% of F)
  Chain of spheres X        ....      44.409 sec  ( 82.2% of F)
  XC integration            ....       4.822 sec  (  8.9% of F)
Z-vector equation           ....      82.753 sec  ( 34.0%)
One electron gradient       ....       9.728 sec  (  4.0%)
Prescreening matrices       ....       0.814 sec  (  0.3%)
RI-J Coulomb gradient       ....      10.309 sec  (  4.2%)
COSX gradient               ....      57.423 sec  ( 23.6%)
XC gradient                 ....      23.711 sec  (  9.8%)

Maximum memory used throughout the entire SCFGRAD-calculation: 396.8 MB

                            ***************************************
                            *     ORCA property calculations      *
                            ***************************************

                                    ---------------------
                                    Active property flags
                                    ---------------------
   (+) Dipole Moment


------------------------------------------------------------------------------
                       ORCA ELECTRIC PROPERTIES CALCULATION
------------------------------------------------------------------------------

Dipole Moment Calculation                       ... on
Quadrupole Moment Calculation                   ... off
Polarizability Calculation                      ... off
GBWName                                         ... S0_TDA_SP.gbw
Electron density                                ... S0_TDA_SP.scfp
The origin for moment calculation is the CENTER OF MASS  = ( 0.000101, -0.006765  0.001812)

-------------
DIPOLE MOMENT
-------------
                                X             Y             Z
Electronic contribution:      0.00009      -0.15654       0.01178
Nuclear contribution   :      0.00011      -1.20515      -0.00999
                        -----------------------------------------
Total Dipole Moment    :      0.00020      -1.36168       0.00180
                        -----------------------------------------
Magnitude (a.u.)       :      1.36168
Magnitude (Debye)      :      3.46112



--------------------
Rotational spectrum 
--------------------
 
Rotational constants in cm-1:     0.005165     0.000247     0.000242 
Rotational constants in MHz :   154.837890     7.392241     7.242398 

 Dipole components along the rotational axes: 
x,y,z [a.u.] :    -0.000126    -1.361681    -0.001508 
x,y,z [Debye]:    -0.000320    -3.461119    -0.003832 

 

                        *** CIS RELAXED DENSITY ***

------------------------------------------------------------------------------
                       ORCA ELECTRIC PROPERTIES CALCULATION
------------------------------------------------------------------------------

Dipole Moment Calculation                       ... on
Quadrupole Moment Calculation                   ... off
Polarizability Calculation                      ... off
GBWName                                         ... S0_TDA_SP.gbw
Electron density                                ... S0_TDA_SP.cisp
The origin for moment calculation is the CENTER OF MASS  = ( 0.000101, -0.006765  0.001812)

-------------
DIPOLE MOMENT
-------------
                                X             Y             Z
Electronic contribution:      0.00147       0.62891       0.00844
Nuclear contribution   :      0.00011      -1.20515      -0.00999
                        -----------------------------------------
Total Dipole Moment    :      0.00159      -0.57624      -0.00154
                        -----------------------------------------
Magnitude (a.u.)       :      0.57625
Magnitude (Debye)      :      1.46470



--------------------
Rotational spectrum 
--------------------
 
Rotational constants in cm-1:     0.005165     0.000247     0.000242 
Rotational constants in MHz :   154.837890     7.392241     7.242398 

 Dipole components along the rotational axes: 
x,y,z [a.u.] :    -0.001554    -0.576236    -0.002943 
x,y,z [Debye]:    -0.003950    -1.464674    -0.007481 

 

Timings for individual modules:

Sum of individual times         ...     3964.951 sec (=  66.083 min)
GTO integral calculation        ...        7.517 sec (=   0.125 min)   0.2 %
SCF iterations                  ...      409.809 sec (=   6.830 min)  10.3 %
CIS module                      ...     3303.203 sec (=  55.053 min)  83.3 %
SCF Gradient evaluation         ...      244.421 sec (=   4.074 min)   6.2 %
                             ****ORCA TERMINATED NORMALLY****
TOTAL RUN TIME: 0 days 1 hours 6 minutes 7 seconds 367 msec
