
                                 *****************
                                 * O   R   C   A *
                                 *****************

                                            #,                                       
                                            ###                                      
                                            ####                                     
                                            #####                                    
                                            ######                                   
                                           ########,                                 
                                     ,,################,,,,,                         
                               ,,#################################,,                 
                          ,,##########################################,,             
                       ,#########################################, ''#####,          
                    ,#############################################,,   '####,        
                  ,##################################################,,,,####,       
                ,###########''''           ''''###############################       
              ,#####''   ,,,,##########,,,,          '''####'''          '####       
            ,##' ,,,,###########################,,,                        '##       
           ' ,,###''''                  '''############,,,                           
         ,,##''                                '''############,,,,        ,,,,,,###''
      ,#''                                            '''#######################'''  
     '                                                          ''''####''''         
             ,#######,   #######,   ,#######,      ##                                
            ,#'     '#,  ##    ##  ,#'     '#,    #''#        ######   ,####,        
            ##       ##  ##   ,#'  ##            #'  '#       #        #'  '#        
            ##       ##  #######   ##           ,######,      #####,   #    #        
            '#,     ,#'  ##    ##  '#,     ,#' ,#      #,         ##   #,  ,#        
             '#######'   ##     ##  '#######'  #'      '#     #####' # '####'        



                  #######################################################
                  #                        -***-                        #
                  #          Department of theory and spectroscopy      #
                  #    Directorship and core code : Frank Neese         #
                  #        Max Planck Institute fuer Kohlenforschung    #
                  #                Kaiser Wilhelm Platz 1               #
                  #                 D-45470 Muelheim/Ruhr               #
                  #                      Germany                        #
                  #                                                     #
                  #                  All rights reserved                #
                  #                        -***-                        #
                  #######################################################


                         Program Version 5.0.3 -  RELEASE  -


 With contributions from (in alphabetic order):
   Daniel Aravena         : Magnetic Suceptibility
   Michael Atanasov       : Ab Initio Ligand Field Theory (pilot matlab implementation)
   Alexander A. Auer      : GIAO ZORA, VPT2 properties, NMR spectrum
   Ute Becker             : Parallelization
   Giovanni Bistoni       : ED, misc. LED, open-shell LED, HFLD
   Martin Brehm           : Molecular dynamics
   Dmytro Bykov           : SCF Hessian
   Vijay G. Chilkuri      : MRCI spin determinant printing, contributions to CSF-ICE
   Dipayan Datta          : RHF DLPNO-CCSD density
   Achintya Kumar Dutta   : EOM-CC, STEOM-CC
   Dmitry Ganyushin       : Spin-Orbit,Spin-Spin,Magnetic field MRCI
   Miquel Garcia          : C-PCM and meta-GGA Hessian, CC/C-PCM, Gaussian charge scheme
   Yang Guo               : DLPNO-NEVPT2, F12-NEVPT2, CIM, IAO-localization
   Andreas Hansen         : Spin unrestricted coupled pair/coupled cluster methods
   Benjamin Helmich-Paris : MC-RPA, TRAH-SCF, COSX integrals
   Lee Huntington         : MR-EOM, pCC
   Robert Izsak           : Overlap fitted RIJCOSX, COSX-SCS-MP3, EOM
   Marcus Kettner         : VPT2
   Christian Kollmar      : KDIIS, OOCD, Brueckner-CCSD(T), CCSD density, CASPT2, CASPT2-K
   Simone Kossmann        : Meta GGA functionals, TD-DFT gradient, OOMP2, MP2 Hessian
   Martin Krupicka        : Initial AUTO-CI
   Lucas Lang             : DCDCAS
   Marvin Lechner         : AUTO-CI (C++ implementation), FIC-MRCC
   Dagmar Lenk            : GEPOL surface, SMD
   Dimitrios Liakos       : Extrapolation schemes; Compound Job, initial MDCI parallelization
   Dimitrios Manganas     : Further ROCIS development; embedding schemes
   Dimitrios Pantazis     : SARC Basis sets
   Anastasios Papadopoulos: AUTO-CI, single reference methods and gradients
   Taras Petrenko         : DFT Hessian,TD-DFT gradient, ASA, ECA, R-Raman, ABS, FL, XAS/XES, NRVS
   Peter Pinski           : DLPNO-MP2, DLPNO-MP2 Gradient
   Christoph Reimann      : Effective Core Potentials
   Marius Retegan         : Local ZFS, SOC
   Christoph Riplinger    : Optimizer, TS searches, QM/MM, DLPNO-CCSD(T), (RO)-DLPNO pert. Triples
   Tobias Risthaus        : Range-separated hybrids, TD-DFT gradient, RPA, STAB
   Michael Roemelt        : Original ROCIS implementation
   Masaaki Saitow         : Open-shell DLPNO-CCSD energy and density
   Barbara Sandhoefer     : DKH picture change effects
   Avijit Sen             : IP-ROCIS
   Kantharuban Sivalingam : CASSCF convergence, NEVPT2, FIC-MRCI
   Bernardo de Souza      : ESD, SOC TD-DFT
   Georgi Stoychev        : AutoAux, RI-MP2 NMR, DLPNO-MP2 response
   Willem Van den Heuvel  : Paramagnetic NMR
   Boris Wezisla          : Elementary symmetry handling
   Frank Wennmohs         : Technical directorship


 We gratefully acknowledge several colleagues who have allowed us to
 interface, adapt or use parts of their codes:
   Stefan Grimme, W. Hujo, H. Kruse, P. Pracht,  : VdW corrections, initial TS optimization,
                  C. Bannwarth, S. Ehlert          DFT functionals, gCP, sTDA/sTD-DF
   Ed Valeev, F. Pavosevic, A. Kumar             : LibInt (2-el integral package), F12 methods
   Garnet Chan, S. Sharma, J. Yang, R. Olivares  : DMRG
   Ulf Ekstrom                                   : XCFun DFT Library
   Mihaly Kallay                                 : mrcc  (arbitrary order and MRCC methods)
   Jiri Pittner, Ondrej Demel                    : Mk-CCSD
   Frank Weinhold                                : gennbo (NPA and NBO analysis)
   Christopher J. Cramer and Donald G. Truhlar   : smd solvation model
   Lars Goerigk                                  : TD-DFT with DH, B97 family of functionals
   V. Asgeirsson, H. Jonsson                     : NEB implementation
   FAccTs GmbH                                   : IRC, NEB, NEB-TS, DLPNO-Multilevel, CI-OPT
                                                   MM, QMMM, 2- and 3-layer-ONIOM, Crystal-QMMM,
                                                   LR-CPCM, SF, NACMEs, symmetry and pop. for TD-DFT,
                                                   nearIR, NL-DFT gradient (VV10), updates on ESD,
                                                   ML-optimized integration grids
   S Lehtola, MJT Oliveira, MAL Marques          : LibXC Library
   Liviu Ungur et al                             : ANISO software


 Your calculation uses the libint2 library for the computation of 2-el integrals
 For citations please refer to: http://libint.valeyev.net

 Your ORCA version has been built with support for libXC version: 5.1.0
 For citations please refer to: https://tddft.org/programs/libxc/

 This ORCA versions uses:
   CBLAS   interface :  Fast vector & matrix operations
   LAPACKE interface :  Fast linear algebra routines
   SCALAPACK package :  Parallel linear algebra routines
   Shared memory     :  Shared parallel matrices
   BLAS/LAPACK       :  OpenBLAS 0.3.15  USE64BITINT DYNAMIC_ARCH NO_AFFINITY SkylakeX SINGLE_THREADED
        Core in use  :  SkylakeX
   Copyright (c) 2011-2014, The OpenBLAS Project




***************************************
The coordinates will be read from file: S0_XTB.xyz
***************************************


Your calculation utilizes the atom-pairwise dispersion correction
with the Becke-Johnson damping scheme (D3BJ)
Cite in your paper:
S.Grimme, S.Ehrlich, L.Goerigk, J Comput Chem, (2011), 32, 1456–1465 
S.Grimme, J.Antony, S.Ehrlich and H.Krieg, J.Chem.Phys., 132, (2010), 154104 
   

================================================================================

----- Orbital basis set information -----
Your calculation utilizes the basis: def2-SVP
   F. Weigend and R. Ahlrichs, Phys. Chem. Chem. Phys. 7, 3297 (2005).

----- AuxJ basis set information -----
Your calculation utilizes the auxiliary basis: def2/J
   F. Weigend, Phys. Chem. Chem. Phys. 8, 1057 (2006).

================================================================================
                                        WARNINGS
                       Please study these warnings very carefully!
================================================================================


INFO   : the flag for use of the SHARK integral package has been found!

================================================================================
                                       INPUT FILE
================================================================================
NAME = /dev/shm/slurm.malcolms.9692366/9692366/freq/FREQ_OPT.inp
|  1> ! PBE0 def2-SVP D3BJ def2/J RIJCOSX tightSCF noautostart miniprint nopop defgrid3 Opt Freq
|  2> %maxcore    4000
|  3> %pal    nprocs  40  end
|  4> * xyzfile 0 1 S0_XTB.xyz
|  5> 
|  6> 
|  7>                          ****END OF INPUT****
================================================================================

                       *****************************
                       * Geometry Optimization Run *
                       *****************************

Geometry optimization settings:
Update method            Update   .... BFGS
Choice of coordinates    CoordSys .... Z-matrix Internals
Initial Hessian          InHess   .... Almoef's Model

Convergence Tolerances:
Energy Change            TolE     ....  5.0000e-06 Eh
Max. Gradient            TolMAXG  ....  3.0000e-04 Eh/bohr
RMS Gradient             TolRMSG  ....  1.0000e-04 Eh/bohr
Max. Displacement        TolMAXD  ....  4.0000e-03 bohr
RMS Displacement         TolRMSD  ....  2.0000e-03 bohr
Strict Convergence                ....  False
------------------------------------------------------------------------------
                        ORCA OPTIMIZATION COORDINATE SETUP
------------------------------------------------------------------------------

The optimization will be done in new redundant internal coordinates
Making redundant internal coordinates   ...  (new redundants) done
Evaluating the initial hessian          ...  (Almloef) done
Evaluating the coordinates              ...  done
Calculating the B-matrix                .... done
Calculating the G-matrix                .... done
Diagonalizing the G-matrix              .... done
Small eigenvalue found = 1.246e-04
Small eigenvalue found = 4.719e-04
Small eigenvalue found = 8.387e-04
Small eigenvalue found = 1.575e-03
Small eigenvalue found = 1.773e-03
Small eigenvalue found = 3.300e-03
Small eigenvalue found = 4.484e-03
Small eigenvalue found = 6.488e-03
Small eigenvalue found = 9.922e-03
Small eigenvalue found = 1.263e-02
Small eigenvalue found = 1.630e-02
Small eigenvalue found = 1.674e-02
Small eigenvalue found = 2.694e-02
Small eigenvalue found = 2.869e-02
The first mode is                       ....  261
The number of degrees of freedom        ....  264

    -----------------------------------------------------------------
                    Redundant Internal Coordinates


    -----------------------------------------------------------------
         Definition                    Initial Value    Approx d2E/dq
    -----------------------------------------------------------------
      1. B(C   1,O   0)                  1.2092         1.087123   
      2. B(C   2,C   1)                  1.4874         0.436941   
      3. B(C   3,C   2)                  1.3738         0.663172   
      4. B(C   4,C   3)                  1.4055         0.590157   
      5. B(C   5,C   4)                  1.4474         0.506072   
      6. B(C   6,C   5)                  1.3429         0.742812   
      7. B(C   7,C   6)                  1.4477         0.505373   
      8. B(C   8,C   7)                  1.3996         0.603085   
      9. B(C   9,C   8)                  1.3778         0.653408   
     10. B(C  10,C   9)                  1.3932         0.617404   
     11. B(N  11,C  10)                  1.3984         0.542537   
     12. B(C  12,N  11)                  1.3818         0.576620   
     13. B(C  13,C  12)                  1.3875         0.630622   
     14. B(C  14,C  13)                  1.3818         0.643884   
     15. B(C  15,C  14)                  1.3930         0.617867   
     16. B(C  16,C  15)                  1.3805         0.647008   
     17. B(C  17,C  16)                  1.3885         0.628164   
     18. B(C  17,C  12)                  1.4137         0.572737   
     19. B(C  18,C  17)                  1.4363         0.527141   
     20. B(C  19,C  18)                  1.3885         0.628196   
     21. B(C  20,C  19)                  1.3805         0.646947   
     22. B(C  21,C  20)                  1.3930         0.617890   
     23. B(C  22,C  21)                  1.3818         0.643893   
     24. B(C  23,C  22)                  1.3875         0.630531   
     25. B(C  23,C  18)                  1.4137         0.572739   
     26. B(C  23,N  11)                  1.3817         0.576896   
     27. B(C  24,C  10)                  1.3940         0.615672   
     28. B(C  25,C  24)                  1.3775         0.654076   
     29. B(C  25,C   7)                  1.3988         0.604845   
     30. B(C  26,C   4)                  1.4001         0.601952   
     31. B(C  27,C  26)                  1.3863         0.633378   
     32. B(C  28,C  27)                  1.3815         0.644533   
     33. B(C  28,C   2)                  1.4096         0.581439   
     34. B(C  29,C  28)                  1.4558         0.490675   
     35. B(C  30,C  29)                  1.3815         0.644529   
     36. B(C  31,C  30)                  1.3863         0.633366   
     37. B(C  32,C  31)                  1.4001         0.601960   
     38. B(C  33,C  32)                  1.4474         0.506060   
     39. B(C  34,C  33)                  1.3429         0.742817   
     40. B(C  35,C  34)                  1.4477         0.505385   
     41. B(C  36,C  35)                  1.3996         0.603087   
     42. B(C  37,C  36)                  1.3778         0.653414   
     43. B(C  38,C  37)                  1.3932         0.617407   
     44. B(N  39,C  38)                  1.3984         0.542536   
     45. B(C  40,N  39)                  1.3818         0.576636   
     46. B(C  41,C  40)                  1.3875         0.630621   
     47. B(C  42,C  41)                  1.3818         0.643884   
     48. B(C  43,C  42)                  1.3930         0.617864   
     49. B(C  44,C  43)                  1.3805         0.647004   
     50. B(C  45,C  44)                  1.3885         0.628165   
     51. B(C  45,C  40)                  1.4137         0.572732   
     52. B(C  46,C  45)                  1.4363         0.527137   
     53. B(C  47,C  46)                  1.3885         0.628194   
     54. B(C  48,C  47)                  1.3805         0.646945   
     55. B(C  49,C  48)                  1.3930         0.617892   
     56. B(C  50,C  49)                  1.3818         0.643896   
     57. B(C  51,C  50)                  1.3875         0.630531   
     58. B(C  51,C  46)                  1.4137         0.572742   
     59. B(C  51,N  39)                  1.3817         0.576892   
     60. B(C  52,C  38)                  1.3940         0.615668   
     61. B(C  53,C  52)                  1.3775         0.654070   
     62. B(C  53,C  35)                  1.3988         0.604853   
     63. B(C  54,C  32)                  1.4055         0.590157   
     64. B(C  55,C  54)                  1.3738         0.663183   
     65. B(C  55,C  29)                  1.4096         0.581444   
     66. B(C  55,C   1)                  1.4873         0.436941   
     67. B(H  56,C   3)                  1.0785         0.375644   
     68. B(H  57,C   5)                  1.0820         0.370838   
     69. B(H  58,C   6)                  1.0817         0.371205   
     70. B(H  59,C   8)                  1.0807         0.372597   
     71. B(H  60,C   9)                  1.0798         0.373905   
     72. B(H  61,C  13)                  1.0796         0.374180   
     73. B(H  62,C  14)                  1.0801         0.373474   
     74. B(H  63,C  15)                  1.0799         0.373780   
     75. B(H  64,C  16)                  1.0796         0.374143   
     76. B(H  65,C  19)                  1.0796         0.374155   
     77. B(H  66,C  20)                  1.0799         0.373767   
     78. B(H  67,C  21)                  1.0801         0.373418   
     79. B(H  68,C  22)                  1.0796         0.374105   
     80. B(H  69,C  24)                  1.0799         0.373671   
     81. B(H  70,C  25)                  1.0788         0.375251   
     82. B(H  71,C  26)                  1.0812         0.371871   
     83. B(H  72,C  27)                  1.0799         0.373752   
     84. B(H  73,C  30)                  1.0799         0.373751   
     85. B(H  74,C  31)                  1.0812         0.371871   
     86. B(H  75,C  33)                  1.0820         0.370837   
     87. B(H  76,C  34)                  1.0817         0.371207   
     88. B(H  77,C  36)                  1.0807         0.372597   
     89. B(H  78,C  37)                  1.0798         0.373905   
     90. B(H  79,C  41)                  1.0796         0.374178   
     91. B(H  80,C  42)                  1.0801         0.373474   
     92. B(H  81,C  43)                  1.0799         0.373780   
     93. B(H  82,C  44)                  1.0796         0.374143   
     94. B(H  83,C  47)                  1.0796         0.374155   
     95. B(H  84,C  48)                  1.0799         0.373767   
     96. B(H  85,C  49)                  1.0801         0.373417   
     97. B(H  86,C  50)                  1.0796         0.374104   
     98. B(H  87,C  52)                  1.0799         0.373670   
     99. B(H  88,C  53)                  1.0788         0.375248   
    100. B(H  89,C  54)                  1.0785         0.375644   
    101. A(C   2,C   1,C  55)          104.4089         0.383517   
    102. A(O   0,C   1,C   2)          127.7958         0.448020   
    103. A(O   0,C   1,C  55)          127.7954         0.448020   
    104. A(C   1,C   2,C   3)          128.9743         0.412685   
    105. A(C   1,C   2,C  28)          109.2887         0.403191   
    106. A(C   3,C   2,C  28)          121.7370         0.434308   
    107. A(C   4,C   3,H  56)          121.4423         0.352487   
    108. A(C   2,C   3,H  56)          119.4008         0.359536   
    109. A(C   2,C   3,C   4)          119.1568         0.435474   
    110. A(C   3,C   4,C   5)          123.0966         0.414908   
    111. A(C   5,C   4,C  26)          118.5058         0.416371   
    112. A(C   3,C   4,C  26)          118.3975         0.427961   
    113. A(C   4,C   5,C   6)          126.3565         0.432327   
    114. A(C   6,C   5,H  57)          119.3640         0.365762   
    115. A(C   4,C   5,H  57)          114.2793         0.342737   
    116. A(C   7,C   6,H  58)          114.2134         0.342715   
    117. A(C   5,C   6,C   7)          126.4120         0.432220   
    118. A(C   5,C   6,H  58)          119.3738         0.365824   
    119. A(C   6,C   7,C  25)          123.6004         0.416624   
    120. A(C   6,C   7,C   8)          118.7297         0.416408   
    121. A(C   8,C   7,C  25)          117.6696         0.429997   
    122. A(C   7,C   8,H  59)          119.1945         0.353295   
    123. A(C   7,C   8,C   9)          121.5193         0.436010   
    124. A(C   9,C   8,H  59)          119.2826         0.358133   
    125. A(C   8,C   9,H  60)          120.3805         0.358346   
    126. A(C  10,C   9,H  60)          119.5318         0.354913   
    127. A(C   8,C   9,C  10)          120.0793         0.437858   
    128. A(C   9,C  10,C  24)          119.1179         0.433192   
    129. A(N  11,C  10,C  24)          120.3516         0.420517   
    130. A(C   9,C  10,N  11)          120.5304         0.420728   
    131. A(C  12,N  11,C  23)          108.3387         0.417483   
    132. A(C  10,N  11,C  23)          125.8006         0.412984   
    133. A(C  10,N  11,C  12)          125.8598         0.412949   
    134. A(C  13,C  12,C  17)          121.0396         0.429234   
    135. A(N  11,C  12,C  17)          109.2985         0.419666   
    136. A(N  11,C  12,C  13)          129.5961         0.426951   
    137. A(C  12,C  13,C  14)          117.8325         0.438372   
    138. A(C  12,C  13,H  61)          121.2933         0.356235   
    139. A(C  14,C  13,H  61)          120.8693         0.357497   
    140. A(C  15,C  14,H  62)          119.2755         0.354889   
    141. A(C  13,C  14,H  62)          119.2213         0.357382   
    142. A(C  13,C  14,C  15)          121.5027         0.436759   
    143. A(C  16,C  15,H  63)          119.8208         0.357727   
    144. A(C  14,C  15,H  63)          119.2511         0.354938   
    145. A(C  14,C  15,C  16)          120.9250         0.437141   
    146. A(C  17,C  16,H  64)          120.3986         0.355993   
    147. A(C  15,C  16,C  17)          118.6276         0.438445   
    148. A(C  15,C  16,H  64)          120.9730         0.357786   
    149. A(C  16,C  17,C  18)          133.4184         0.422610   
    150. A(C  12,C  17,C  18)          106.5313         0.415707   
    151. A(C  12,C  17,C  16)          120.0457         0.428933   
    152. A(C  17,C  18,C  23)          106.5220         0.415708   
    153. A(C  17,C  18,C  19)          133.4322         0.422614   
    154. A(C  19,C  18,C  23)          120.0426         0.428938   
    155. A(C  18,C  19,H  65)          120.4013         0.355998   
    156. A(C  18,C  19,C  20)          118.6311         0.438442   
    157. A(C  20,C  19,H  65)          120.9670         0.357782   
    158. A(C  19,C  20,H  66)          119.8226         0.357719   
    159. A(C  21,C  20,H  66)          119.2492         0.354938   
    160. A(C  19,C  20,C  21)          120.9252         0.437136   
    161. A(C  20,C  21,H  67)          119.2756         0.354882   
    162. A(C  20,C  21,C  22)          121.4990         0.436764   
    163. A(C  22,C  21,H  67)          119.2249         0.357374   
    164. A(C  21,C  22,H  68)          120.8755         0.357486   
    165. A(C  21,C  22,C  23)          117.8356         0.438361   
    166. A(C  23,C  22,H  68)          121.2841         0.356215   
    167. A(N  11,C  23,C  18)          109.3084         0.419702   
    168. A(N  11,C  23,C  22)          129.5899         0.426976   
    169. A(C  18,C  23,C  22)          121.0385         0.429223   
    170. A(C  25,C  24,H  69)          120.2097         0.358370   
    171. A(C  10,C  24,H  69)          119.3289         0.354706   
    172. A(C  10,C  24,C  25)          120.4509         0.437717   
    173. A(C  24,C  25,H  70)          118.7626         0.358628   
    174. A(C   7,C  25,H  70)          120.0709         0.353894   
    175. A(C   7,C  25,C  24)          121.1610         0.436319   
    176. A(C   4,C  26,C  27)          122.5321         0.433427   
    177. A(C  27,C  26,H  71)          118.8910         0.356125   
    178. A(C   4,C  26,H  71)          118.5769         0.353066   
    179. A(C  26,C  27,C  28)          118.5715         0.438796   
    180. A(C  28,C  27,H  72)          121.0997         0.357489   
    181. A(C  26,C  27,H  72)          120.3287         0.356430   
    182. A(C  27,C  28,C  29)          131.8879         0.419158   
    183. A(C   2,C  28,C  29)          108.5070         0.411548   
    184. A(C   2,C  28,C  27)          119.6051         0.432087   
    185. A(C  28,C  29,C  30)          131.8889         0.419157   
    186. A(C  30,C  29,C  55)          119.6049         0.432088   
    187. A(C  28,C  29,C  55)          108.5062         0.411549   
    188. A(C  29,C  30,C  31)          118.5721         0.438794   
    189. A(C  31,C  30,H  73)          120.3284         0.356429   
    190. A(C  29,C  30,H  73)          121.0996         0.357488   
    191. A(C  30,C  31,C  32)          122.5314         0.433426   
    192. A(C  32,C  31,H  74)          118.5773         0.353066   
    193. A(C  30,C  31,H  74)          118.8913         0.356124   
    194. A(C  31,C  32,C  33)          118.5097         0.416370   
    195. A(C  33,C  32,C  54)          123.0927         0.414906   
    196. A(C  31,C  32,C  54)          118.3976         0.427962   
    197. A(C  32,C  33,C  34)          126.3491         0.432326   
    198. A(C  34,C  33,H  75)          119.3667         0.365763   
    199. A(C  32,C  33,H  75)          114.2838         0.342736   
    200. A(C  33,C  34,C  35)          126.4155         0.432222   
    201. A(C  33,C  34,H  76)          119.3714         0.365825   
    202. A(C  35,C  34,H  76)          114.2122         0.342716   
    203. A(C  34,C  35,C  36)          118.7279         0.416410   
    204. A(C  36,C  35,C  53)          117.6709         0.429998   
    205. A(C  34,C  35,C  53)          123.6010         0.416626   
    206. A(C  35,C  36,C  37)          121.5191         0.436011   
    207. A(C  37,C  36,H  77)          119.2830         0.358133   
    208. A(C  35,C  36,H  77)          119.1942         0.353295   
    209. A(C  36,C  37,C  38)          120.0785         0.437859   
    210. A(C  38,C  37,H  78)          119.5323         0.354913   
    211. A(C  36,C  37,H  78)          120.3807         0.358347   
    212. A(C  37,C  38,N  39)          120.5304         0.420728   
    213. A(N  39,C  38,C  52)          120.3509         0.420517   
    214. A(C  37,C  38,C  52)          119.1187         0.433192   
    215. A(C  38,N  39,C  40)          125.8656         0.412951   
    216. A(C  40,N  39,C  51)          108.3388         0.417484   
    217. A(C  38,N  39,C  51)          125.7948         0.412983   
    218. A(N  39,C  40,C  41)          129.5954         0.426953   
    219. A(C  41,C  40,C  45)          121.0400         0.429233   
    220. A(N  39,C  40,C  45)          109.2986         0.419667   
    221. A(C  40,C  41,C  42)          117.8321         0.438371   
    222. A(C  42,C  41,H  79)          120.8703         0.357497   
    223. A(C  40,C  41,H  79)          121.2926         0.356235   
    224. A(C  41,C  42,C  43)          121.5028         0.436759   
    225. A(C  43,C  42,H  80)          119.2752         0.354888   
    226. A(C  41,C  42,H  80)          119.2215         0.357383   
    227. A(C  42,C  43,C  44)          120.9252         0.437140   
    228. A(C  44,C  43,H  81)          119.8205         0.357726   
    229. A(C  42,C  43,H  81)          119.2513         0.354938   
    230. A(C  45,C  44,H  82)          120.3990         0.355993   
    231. A(C  43,C  44,H  82)          120.9727         0.357785   
    232. A(C  43,C  44,C  45)          118.6275         0.438445   
    233. A(C  44,C  45,C  46)          133.4187         0.422610   
    234. A(C  40,C  45,C  46)          106.5312         0.415706   
    235. A(C  40,C  45,C  44)          120.0455         0.428933   
    236. A(C  47,C  46,C  51)          120.0422         0.428938   
    237. A(C  45,C  46,C  51)          106.5219         0.415708   
    238. A(C  45,C  46,C  47)          133.4327         0.422613   
    239. A(C  48,C  47,H  83)          120.9667         0.357782   
    240. A(C  46,C  47,H  83)          120.4015         0.355998   
    241. A(C  46,C  47,C  48)          118.6312         0.438442   
    242. A(C  49,C  48,H  84)          119.2492         0.354938   
    243. A(C  47,C  48,H  84)          119.8227         0.357718   
    244. A(C  47,C  48,C  49)          120.9252         0.437136   
    245. A(C  50,C  49,H  85)          119.2248         0.357374   
    246. A(C  48,C  49,H  85)          119.2758         0.354882   
    247. A(C  48,C  49,C  50)          121.4990         0.436764   
    248. A(C  51,C  50,H  86)          121.2840         0.356215   
    249. A(C  49,C  50,H  86)          120.8757         0.357486   
    250. A(C  49,C  50,C  51)          117.8355         0.438362   
    251. A(C  46,C  51,C  50)          121.0388         0.429224   
    252. A(N  39,C  51,C  50)          129.5897         0.426976   
    253. A(N  39,C  51,C  46)          109.3084         0.419702   
    254. A(C  38,C  52,C  53)          120.4511         0.437715   
    255. A(C  53,C  52,H  87)          120.2105         0.358370   
    256. A(C  38,C  52,H  87)          119.3281         0.354706   
    257. A(C  35,C  53,C  52)          121.1597         0.436320   
    258. A(C  52,C  53,H  88)          118.7649         0.358627   
    259. A(C  35,C  53,H  88)          120.0700         0.353895   
    260. A(C  32,C  54,C  55)          119.1574         0.435475   
    261. A(C  55,C  54,H  89)          119.4001         0.359537   
    262. A(C  32,C  54,H  89)          121.4424         0.352487   
    263. A(C  29,C  55,C  54)          121.7366         0.434310   
    264. A(C   1,C  55,C  54)          128.9741         0.412686   
    265. A(C   1,C  55,C  29)          109.2893         0.403192   
    266. D(C   3,C   2,C   1,C  55)   -179.9575         0.013032   
    267. D(C  28,C   2,C   1,O   0)    179.9995         0.013032   
    268. D(C  28,C   2,C   1,C  55)     -0.0034         0.013032   
    269. D(C   3,C   2,C   1,O   0)      0.0454         0.013032   
    270. D(C   4,C   3,C   2,C   1)    179.9383         0.030711   
    271. D(H  56,C   3,C   2,C  28)   -179.9051         0.030711   
    272. D(H  56,C   3,C   2,C   1)      0.0440         0.030711   
    273. D(C   4,C   3,C   2,C  28)     -0.0108         0.030711   
    274. D(C  26,C   4,C   3,C   2)     -0.0216         0.023969   
    275. D(C  26,C   4,C   3,H  56)    179.8705         0.023969   
    276. D(C   5,C   4,C   3,C   2)   -179.9003         0.023969   
    277. D(C   5,C   4,C   3,H  56)     -0.0083         0.023969   
    278. D(H  57,C   5,C   4,C  26)     -0.8453         0.017450   
    279. D(H  57,C   5,C   4,C   3)    179.0333         0.017450   
    280. D(C   6,C   5,C   4,C   3)     -1.1390         0.017450   
    281. D(C   6,C   5,C   4,C  26)    178.9823         0.017450   
    282. D(H  58,C   6,C   5,C   4)     -0.4327         0.039277   
    283. D(H  58,C   6,C   5,H  57)    179.3870         0.039277   
    284. D(C   7,C   6,C   5,H  57)     -0.2881         0.039277   
    285. D(C   7,C   6,C   5,C   4)    179.8921         0.039277   
    286. D(C  25,C   7,C   6,C   5)     -3.0565         0.017401   
    287. D(C  25,C   7,C   6,H  58)    177.2539         0.017401   
    288. D(C   8,C   7,C   6,H  58)     -2.5461         0.017401   
    289. D(C   8,C   7,C   6,C   5)    177.1435         0.017401   
    290. D(H  59,C   8,C   7,C  25)    179.6754         0.025087   
    291. D(H  59,C   8,C   7,C   6)     -0.5126         0.025087   
    292. D(C   9,C   8,C   7,C  25)      0.3652         0.025087   
    293. D(C   9,C   8,C   7,C   6)   -179.8228         0.025087   
    294. D(H  60,C   9,C   8,H  59)     -0.8092         0.029749   
    295. D(C  10,C   9,C   8,H  59)   -179.7494         0.029749   
    296. D(C  10,C   9,C   8,C   7)     -0.4398         0.029749   
    297. D(H  60,C   9,C   8,C   7)    178.5004         0.029749   
    298. D(C  24,C  10,C   9,H  60)   -178.8271         0.026364   
    299. D(C  24,C  10,C   9,C   8)      0.1221         0.026364   
    300. D(N  11,C  10,C   9,H  60)      1.2871         0.026364   
    301. D(N  11,C  10,C   9,C   8)   -179.7636         0.026364   
    302. D(C  23,N  11,C  10,C  24)     49.4233         0.023427   
    303. D(C  23,N  11,C  10,C   9)   -130.6924         0.023427   
    304. D(C  12,N  11,C  10,C  24)   -130.1859         0.023427   
    305. D(C  12,N  11,C  10,C   9)     49.6985         0.023427   
    306. D(C  17,C  12,N  11,C  23)     -0.0801         0.026648   
    307. D(C  17,C  12,N  11,C  10)    179.5859         0.026648   
    308. D(C  13,C  12,N  11,C  23)   -177.0990         0.026648   
    309. D(C  13,C  12,N  11,C  10)      2.5670         0.026648   
    310. D(H  61,C  13,C  12,N  11)     -0.7913         0.027577   
    311. D(H  61,C  13,C  12,C  17)   -177.5073         0.027577   
    312. D(C  14,C  13,C  12,C  17)      1.6924         0.027577   
    313. D(C  14,C  13,C  12,N  11)    178.4083         0.027577   
    314. D(H  62,C  14,C  13,H  61)     -0.9730         0.028829   
    315. D(H  62,C  14,C  13,C  12)    179.8238         0.028829   
    316. D(C  15,C  14,C  13,C  12)     -0.4361         0.028829   
    317. D(C  15,C  14,C  13,H  61)    178.7671         0.028829   
    318. D(H  63,C  15,C  14,H  62)     -0.4375         0.026406   
    319. D(H  63,C  15,C  14,C  13)    179.8226         0.026406   
    320. D(C  16,C  15,C  14,C  13)     -0.8126         0.026406   
    321. D(C  16,C  15,C  14,H  62)    178.9273         0.026406   
    322. D(H  64,C  16,C  15,H  63)      0.4585         0.029128   
    323. D(H  64,C  16,C  15,C  14)   -178.9027         0.029128   
    324. D(C  17,C  16,C  15,C  14)      0.7781         0.029128   
    325. D(C  17,C  16,C  15,H  63)   -179.8607         0.029128   
    326. D(C  18,C  17,C  12,N  11)      0.2638         0.022511   
    327. D(C  16,C  17,C  12,C  13)     -1.7415         0.022511   
    328. D(C  16,C  17,C  12,N  11)   -179.0607         0.022511   
    329. D(C  18,C  17,C  16,H  64)      1.0436         0.027349   
    330. D(C  18,C  17,C  16,C  15)   -178.6390         0.027349   
    331. D(C  12,C  17,C  16,H  64)   -179.8479         0.027349   
    332. D(C  12,C  17,C  16,C  15)      0.4694         0.027349   
    333. D(C  18,C  17,C  12,C  13)    177.5830         0.022511   
    334. D(C  23,C  18,C  17,C  16)    178.8545         0.018962   
    335. D(C  23,C  18,C  17,C  12)     -0.3405         0.018962   
    336. D(C  19,C  18,C  17,C  16)     -1.8217         0.018962   
    337. D(C  19,C  18,C  17,C  12)    178.9833         0.018962   
    338. D(H  65,C  19,C  18,C  23)   -179.8546         0.027352   
    339. D(H  65,C  19,C  18,C  17)      0.8942         0.027352   
    340. D(C  20,C  19,C  18,C  23)      0.4396         0.027352   
    341. D(C  20,C  19,C  18,C  17)   -178.8116         0.027352   
    342. D(H  66,C  20,C  19,H  65)      0.4802         0.029123   
    343. D(H  66,C  20,C  19,C  18)   -179.8157         0.029123   
    344. D(C  21,C  20,C  19,H  65)   -178.8827         0.029123   
    345. D(C  21,C  20,C  19,C  18)      0.8214         0.029123   
    346. D(H  67,C  21,C  20,H  66)     -0.4445         0.026408   
    347. D(H  67,C  21,C  20,C  19)    178.9219         0.026408   
    348. D(C  22,C  21,C  20,H  66)    179.8118         0.026408   
    349. D(C  22,C  21,C  20,C  19)     -0.8217         0.026408   
    350. D(H  68,C  22,C  21,H  67)     -1.0030         0.028829   
    351. D(H  68,C  22,C  21,C  20)    178.7407         0.028829   
    352. D(C  23,C  22,C  21,H  67)    179.7818         0.028829   
    353. D(C  23,C  22,C  21,C  20)     -0.4744         0.028829   
    354. D(C  18,C  23,C  22,H  68)   -177.4680         0.027569   
    355. D(C  18,C  23,C  22,C  21)      1.7438         0.027569   
    356. D(N  11,C  23,C  22,H  68)     -0.6868         0.027569   
    357. D(N  11,C  23,C  22,C  21)    178.5250         0.027569   
    358. D(C  22,C  23,C  18,C  19)     -1.7594         0.022511   
    359. D(C  22,C  23,C  18,C  17)    177.6734         0.022511   
    360. D(N  11,C  23,C  18,C  19)   -179.1315         0.022511   
    361. D(N  11,C  23,C  18,C  17)      0.3013         0.022511   
    362. D(C  22,C  23,N  11,C  12)   -177.2196         0.026675   
    363. D(C  22,C  23,N  11,C  10)      3.1142         0.026675   
    364. D(C  18,C  23,N  11,C  12)     -0.1416         0.026675   
    365. D(C  18,C  23,N  11,C  10)   -179.8079         0.026675   
    366. D(H  69,C  24,C  10,N  11)      1.3169         0.026207   
    367. D(H  69,C  24,C  10,C   9)   -178.5691         0.026207   
    368. D(C  25,C  24,C  10,N  11)   -179.8556         0.026207   
    369. D(C  25,C  24,C  10,C   9)      0.2584         0.026207   
    370. D(H  70,C  25,C  24,H  69)     -0.6622         0.029814   
    371. D(H  70,C  25,C  24,C  10)   -179.4793         0.029814   
    372. D(C   7,C  25,C  24,H  69)    178.4862         0.029814   
    373. D(C   7,C  25,C  24,C  10)     -0.3309         0.029814   
    374. D(H  70,C  25,C   7,C   8)    179.1587         0.025242   
    375. D(H  70,C  25,C   7,C   6)     -0.6433         0.025242   
    376. D(C  24,C  25,C   7,C   8)      0.0213         0.025242   
    377. D(C  24,C  25,C   7,C   6)   -179.7807         0.025242   
    378. D(H  71,C  26,C   4,C   5)     -0.0858         0.024988   
    379. D(C  27,C  26,C   4,C   5)    179.9317         0.024988   
    380. D(C  27,C  26,C   4,C   3)      0.0473         0.024988   
    381. D(H  71,C  26,C   4,C   3)   -179.9702         0.024988   
    382. D(H  72,C  27,C  26,H  71)      0.0080         0.027834   
    383. D(H  72,C  27,C  26,C   4)    179.9906         0.027834   
    384. D(C  28,C  27,C  26,H  71)    179.9788         0.027834   
    385. D(C  28,C  27,C  26,C   4)     -0.0387         0.027834   
    386. D(C   2,C  28,C  27,H  72)    179.9754         0.028891   
    387. D(C   2,C  28,C  27,C  26)      0.0049         0.028891   
    388. D(C  29,C  28,C   2,C   3)    179.9737         0.023232   
    389. D(C  29,C  28,C   2,C   1)      0.0156         0.023232   
    390. D(C  27,C  28,C   2,C   3)      0.0196         0.023232   
    391. D(C  29,C  28,C  27,C  26)   -179.9366         0.028891   
    392. D(C  27,C  28,C   2,C   1)   -179.9385         0.023232   
    393. D(C  29,C  28,C  27,H  72)      0.0339         0.028891   
    394. D(C  55,C  29,C  28,C  27)    179.9240         0.016394   
    395. D(C  55,C  29,C  28,C   2)     -0.0224         0.016394   
    396. D(C  30,C  29,C  28,C  27)     -0.1263         0.016394   
    397. D(C  30,C  29,C  28,C   2)    179.9273         0.016394   
    398. D(H  73,C  30,C  29,C  55)    179.9627         0.028890   
    399. D(H  73,C  30,C  29,C  28)      0.0177         0.028890   
    400. D(C  31,C  30,C  29,C  55)     -0.0085         0.028890   
    401. D(C  31,C  30,C  29,C  28)   -179.9536         0.028890   
    402. D(H  74,C  31,C  30,H  73)      0.0146         0.027833   
    403. D(H  74,C  31,C  30,C  29)    179.9861         0.027833   
    404. D(C  32,C  31,C  30,H  73)    179.9819         0.027833   
    405. D(C  32,C  31,C  30,C  29)     -0.0467         0.027833   
    406. D(C  54,C  32,C  31,H  74)   -179.9575         0.024989   
    407. D(C  54,C  32,C  31,C  30)      0.0751         0.024989   
    408. D(C  33,C  32,C  31,H  74)     -0.0608         0.024989   
    409. D(C  33,C  32,C  31,C  30)    179.9718         0.024989   
    410. D(H  75,C  33,C  32,C  54)    178.8562         0.017449   
    411. D(H  75,C  33,C  32,C  31)     -1.0353         0.017449   
    412. D(C  34,C  33,C  32,C  54)     -1.3650         0.017449   
    413. D(C  34,C  33,C  32,C  31)    178.7435         0.017449   
    414. D(H  76,C  34,C  33,H  75)    179.3433         0.039278   
    415. D(H  76,C  34,C  33,C  32)     -0.4253         0.039278   
    416. D(C  35,C  34,C  33,H  75)     -0.2851         0.039278   
    417. D(C  35,C  34,C  33,C  32)    179.9463         0.039278   
    418. D(C  53,C  35,C  34,H  76)    177.1884         0.017402   
    419. D(C  53,C  35,C  34,C  33)     -3.1667         0.017402   
    420. D(C  36,C  35,C  34,H  76)     -2.6289         0.017402   
    421. D(C  36,C  35,C  34,C  33)    177.0161         0.017402   
    422. D(H  77,C  36,C  35,C  53)    179.6891         0.025088   
    423. D(H  77,C  36,C  35,C  34)     -0.4828         0.025088   
    424. D(C  37,C  36,C  35,C  53)      0.3915         0.025088   
    425. D(C  37,C  36,C  35,C  34)   -179.7804         0.025088   
    426. D(H  78,C  37,C  36,H  77)     -0.8066         0.029749   
    427. D(H  78,C  37,C  36,C  35)    178.4904         0.029749   
    428. D(C  38,C  37,C  36,H  77)   -179.7406         0.029749   
    429. D(C  38,C  37,C  36,C  35)     -0.4436         0.029749   
    430. D(C  52,C  38,C  37,H  78)   -178.8417         0.026364   
    431. D(C  52,C  38,C  37,C  36)      0.1013         0.026364   
    432. D(N  39,C  38,C  37,H  78)      1.2620         0.026364   
    433. D(N  39,C  38,C  37,C  36)   -179.7949         0.026364   
    434. D(C  51,N  39,C  38,C  52)     49.4383         0.023427   
    435. D(C  51,N  39,C  38,C  37)   -130.6667         0.023427   
    436. D(C  40,N  39,C  38,C  52)   -130.2032         0.023427   
    437. D(C  40,N  39,C  38,C  37)     49.6918         0.023427   
    438. D(C  45,C  40,N  39,C  51)     -0.0795         0.026649   
    439. D(C  45,C  40,N  39,C  38)    179.6141         0.026649   
    440. D(C  41,C  40,N  39,C  51)   -177.0955         0.026649   
    441. D(C  41,C  40,N  39,C  38)      2.5982         0.026649   
    442. D(H  79,C  41,C  40,C  45)   -177.5078         0.027577   
    443. D(H  79,C  41,C  40,N  39)     -0.7951         0.027577   
    444. D(C  42,C  41,C  40,C  45)      1.6911         0.027577   
    445. D(C  42,C  41,C  40,N  39)    178.4038         0.027577   
    446. D(H  80,C  42,C  41,H  79)     -0.9709         0.028829   
    447. D(H  80,C  42,C  41,C  40)    179.8266         0.028829   
    448. D(C  43,C  42,C  41,H  79)    178.7686         0.028829   
    449. D(C  43,C  42,C  41,C  40)     -0.4338         0.028829   
    450. D(H  81,C  43,C  42,H  80)     -0.4382         0.026405   
    451. D(H  81,C  43,C  42,C  41)    179.8223         0.026405   
    452. D(C  44,C  43,C  42,H  80)    178.9258         0.026405   
    453. D(C  44,C  43,C  42,C  41)     -0.8136         0.026405   
    454. D(H  82,C  44,C  43,H  81)      0.4561         0.029128   
    455. D(H  82,C  44,C  43,C  42)   -178.9043         0.029128   
    456. D(C  45,C  44,C  43,H  81)   -179.8629         0.029128   
    457. D(C  45,C  44,C  43,C  42)      0.7767         0.029128   
    458. D(C  46,C  45,C  44,H  82)      1.0487         0.027349   
    459. D(C  46,C  45,C  44,C  43)   -178.6342         0.027349   
    460. D(C  40,C  45,C  44,H  82)   -179.8453         0.027349   
    461. D(C  40,C  45,C  44,C  43)      0.4718         0.027349   
    462. D(C  46,C  45,C  40,C  41)    177.5802         0.022511   
    463. D(C  46,C  45,C  40,N  39)      0.2636         0.022511   
    464. D(C  44,C  45,C  40,C  41)     -1.7425         0.022511   
    465. D(C  44,C  45,C  40,N  39)   -179.0591         0.022511   
    466. D(C  51,C  46,C  45,C  44)    178.8521         0.018962   
    467. D(C  51,C  46,C  45,C  40)     -0.3407         0.018962   
    468. D(C  47,C  46,C  45,C  44)     -1.8214         0.018962   
    469. D(C  47,C  46,C  45,C  40)    178.9858         0.018962   
    470. D(H  83,C  47,C  46,C  51)   -179.8563         0.027352   
    471. D(H  83,C  47,C  46,C  45)      0.8895         0.027352   
    472. D(C  48,C  47,C  46,C  51)      0.4377         0.027352   
    473. D(C  48,C  47,C  46,C  45)   -178.8165         0.027352   
    474. D(H  84,C  48,C  47,H  83)      0.4823         0.029122   
    475. D(H  84,C  48,C  47,C  46)   -179.8134         0.029122   
    476. D(C  49,C  48,C  47,H  83)   -178.8820         0.029122   
    477. D(C  49,C  48,C  47,C  46)      0.8223         0.029122   
    478. D(H  85,C  49,C  48,H  84)     -0.4446         0.026408   
    479. D(H  85,C  49,C  48,C  47)    178.9233         0.026408   
    480. D(C  50,C  49,C  48,H  84)    179.8114         0.026408   
    481. D(C  50,C  49,C  48,C  47)     -0.8207         0.026408   
    482. D(H  86,C  50,C  49,H  85)     -1.0047         0.028830   
    483. D(H  86,C  50,C  49,C  48)    178.7394         0.028830   
    484. D(C  51,C  50,C  49,H  85)    179.7796         0.028830   
    485. D(C  51,C  50,C  49,C  48)     -0.4763         0.028830   
    486. D(C  46,C  51,C  50,H  86)   -177.4677         0.027569   
    487. D(N  39,C  51,C  50,H  86)     -0.6832         0.027569   
    488. D(N  39,C  51,C  50,C  49)    178.5292         0.027569   
    489. D(C  50,C  51,C  46,C  47)     -1.7583         0.022512   
    490. D(C  50,C  51,C  46,C  45)    177.6768         0.022512   
    491. D(N  39,C  51,C  46,C  47)   -179.1331         0.022512   
    492. D(N  39,C  51,C  46,C  45)      0.3019         0.022512   
    493. D(C  50,C  51,N  39,C  40)   -177.2234         0.026675   
    494. D(C  50,C  51,N  39,C  38)      3.0827         0.026675   
    495. D(C  46,C  51,C  50,C  49)      1.7446         0.027569   
    496. D(C  46,C  51,N  39,C  40)     -0.1423         0.026675   
    497. D(C  46,C  51,N  39,C  38)   -179.8363         0.026675   
    498. D(H  87,C  52,C  38,N  39)      1.3434         0.026207   
    499. D(H  87,C  52,C  38,C  37)   -178.5531         0.026207   
    500. D(C  53,C  52,C  38,N  39)   -179.8228         0.026207   
    501. D(C  53,C  52,C  38,C  37)      0.2808         0.026207   
    502. D(H  88,C  53,C  52,H  87)     -0.6553         0.029813   
    503. D(H  88,C  53,C  52,C  38)   -179.4787         0.029813   
    504. D(C  35,C  53,C  52,H  87)    178.4933         0.029813   
    505. D(C  35,C  53,C  52,C  38)     -0.3302         0.029813   
    506. D(H  88,C  53,C  35,C  36)    179.1342         0.025243   
    507. D(H  88,C  53,C  35,C  34)     -0.6848         0.025243   
    508. D(C  52,C  53,C  35,C  36)     -0.0033         0.025243   
    509. D(C  52,C  53,C  35,C  34)   -179.8223         0.025243   
    510. D(H  89,C  54,C  32,C  33)     -0.0492         0.023969   
    511. D(H  89,C  54,C  32,C  31)    179.8424         0.023969   
    512. D(C  55,C  54,C  32,C  33)   -179.9391         0.023969   
    513. D(C  55,C  54,C  32,C  31)     -0.0475         0.023969   
    514. D(C  54,C  55,C  29,C  28)    179.9913         0.023233   
    515. D(C   1,C  55,C  29,C  30)   -179.9367         0.023233   
    516. D(C   1,C  55,C  29,C  28)      0.0202         0.023233   
    517. D(C  54,C  55,C   1,C   2)   -179.9789         0.013032   
    518. D(C  54,C  55,C   1,O   0)      0.0181         0.013032   
    519. D(C  29,C  55,C   1,C   2)     -0.0105         0.013032   
    520. D(C  29,C  55,C   1,O   0)    179.9866         0.013032   
    521. D(C  29,C  55,C  54,H  89)   -179.8976         0.030712   
    522. D(C  29,C  55,C  54,C  32)     -0.0054         0.030712   
    523. D(C   1,C  55,C  54,H  89)      0.0673         0.030712   
    524. D(C   1,C  55,C  54,C  32)    179.9596         0.030712   
    525. D(C  54,C  55,C  29,C  30)      0.0344         0.023233   
    -----------------------------------------------------------------

Number of atoms                         .... 90
Number of degrees of freedom            .... 525

         *************************************************************
         *                GEOMETRY OPTIMIZATION CYCLE   1            *
         *************************************************************
---------------------------------
CARTESIAN COORDINATES (ANGSTROEM)
---------------------------------
  O     -0.000211    1.013972   -0.011450
  C     -0.000104   -0.195250   -0.006350
  C      1.175274   -1.106642    0.001499
  C      2.512549   -0.792104    0.005576
  C      3.460139   -1.830131    0.014315
  C      4.888480   -1.596321    0.021252
  C      5.499563   -0.400718   -0.001077
  C      6.928028   -0.165412    0.008021
  C      7.393489    1.151619   -0.079902
  C      8.740565    1.441012   -0.079911
  C      9.675665    0.412863    0.018150
  N     11.045068    0.696237    0.023990
  C     11.674468    1.632996    0.821378
  C     11.145138    2.455517    1.805426
  C     12.012601    3.289702    2.484425
  C     13.377002    3.305026    2.203847
  C     13.913308    2.470431    1.243857
  C     13.061460    1.622851    0.548159
  C     13.270122    0.631885   -0.470321
  C     14.394727    0.184619   -1.150918
  C     14.240149   -0.792627   -2.113686
  C     12.981983   -1.310556   -2.412496
  C     11.848353   -0.881184   -1.749241
  C     12.001015    0.081495   -0.761750
  C      9.228444   -0.904048    0.112960
  C      7.880050   -1.185755    0.104420
  C      2.999431   -3.152295    0.019006
  C      1.650458   -3.471735    0.014396
  C      0.727963   -2.443356    0.005624
  C     -0.727805   -2.443504    0.000295
  C     -1.650141   -3.472065    0.000046
  C     -2.999173   -3.152895   -0.006850
  C     -3.460083   -1.830810   -0.012590
  C     -4.888457   -1.597181   -0.020227
  C     -5.499509   -0.401484   -0.002654
  C     -6.927959   -0.166119   -0.011351
  C     -7.393246    1.151153    0.073845
  C     -8.740308    1.440601    0.074946
  C     -9.675562    0.412238   -0.019301
  N    -11.044978    0.695586   -0.023349
  C    -11.675883    1.630699   -0.821466
  C    -11.148481    2.450886   -1.808494
  C    -12.017230    3.283683   -2.487551
  C    -13.381027    3.299927   -2.204098
  C    -13.915453    2.467631   -1.241065
  C    -13.062295    1.621443   -0.545277
  C    -13.268988    0.632775    0.475837
  C    -14.392231    0.187206    1.159788
  C    -14.235804   -0.788002    2.124324
  C    -12.977109   -1.305539    2.421579
  C    -11.844802   -0.877803    1.755018
  C    -11.999374    0.082770    0.765776
  C     -9.228511   -0.904891   -0.111878
  C     -7.880116   -1.186640   -0.104419
  C     -2.512651   -0.792601   -0.012889
  C     -1.175327   -1.106875   -0.006584
  H      2.812816    0.243749    0.003747
  H      5.486730   -2.497595    0.044263
  H      4.901724    0.500192   -0.034164
  H      6.679426    1.958794   -0.160680
  H      9.079788    2.461880   -0.172840
  H     10.092591    2.437723    2.044752
  H     11.624078    3.941552    3.252995
  H     14.021532    3.973644    2.754854
  H     14.973101    2.469144    1.038084
  H     15.367032    0.599228   -0.931352
  H     15.102191   -1.156682   -2.652615
  H     12.889453   -2.061924   -3.182905
  H     10.875570   -1.274823   -2.002832
  H      9.949590   -1.701719    0.212545
  H      7.563999   -2.213823    0.187820
  H      3.725887   -3.953106    0.026224
  H      1.334601   -4.504373    0.018111
  H     -1.334119   -4.504650    0.004629
  H     -3.725503   -3.953853   -0.007308
  H     -5.486693   -2.498571   -0.038619
  H     -4.901604    0.499514    0.026537
  H     -6.679041    1.958480    0.151799
  H     -9.079372    2.461701    0.165893
  H    -10.096443    2.432338   -2.049997
  H    -11.630228    3.933685   -3.258451
  H    -14.026604    3.967409   -2.755257
  H    -14.974802    2.467054   -1.033014
  H    -15.364919    0.601542    0.941406
  H    -15.096776   -1.150745    2.665842
  H    -12.883094   -2.055287    3.193386
  H    -10.871557   -1.271074    2.007404
  H     -9.949828   -1.702739   -0.208772
  H     -7.564170   -2.214886   -0.186042
  H     -2.813076    0.243184   -0.019722

----------------------------
CARTESIAN COORDINATES (A.U.)
----------------------------
  NO LB      ZA    FRAG     MASS         X           Y           Z
   0 O     8.0000    0    15.999   -0.000398    1.916128   -0.021638
   1 C     6.0000    0    12.011   -0.000197   -0.368969   -0.011999
   2 C     6.0000    0    12.011    2.220945   -2.091251    0.002834
   3 C     6.0000    0    12.011    4.748029   -1.496860    0.010538
   4 C     6.0000    0    12.011    6.538715   -3.458447    0.027052
   5 C     6.0000    0    12.011    9.237888   -3.016610    0.040161
   6 C     6.0000    0    12.011   10.392669   -0.757248   -0.002035
   7 C     6.0000    0    12.011   13.092075   -0.312584    0.015158
   8 C     6.0000    0    12.011   13.971669    2.176245   -0.150993
   9 C     6.0000    0    12.011   16.517275    2.723118   -0.151009
  10 C     6.0000    0    12.011   18.284357    0.780198    0.034298
  11 N     7.0000    0    14.007   20.872154    1.315696    0.045334
  12 C     6.0000    0    12.011   22.061547    3.085915    1.552179
  13 C     6.0000    0    12.011   21.061258    4.640254    3.411761
  14 C     6.0000    0    12.011   22.700525    6.216635    4.694882
  15 C     6.0000    0    12.011   25.278870    6.245595    4.164668
  16 C     6.0000    0    12.011   26.292342    4.668437    2.350550
  17 C     6.0000    0    12.011   24.682581    3.066743    1.035871
  18 C     6.0000    0    12.011   25.076896    1.194090   -0.888779
  19 C     6.0000    0    12.011   27.202092    0.348879   -2.174919
  20 C     6.0000    0    12.011   26.909982   -1.497848   -3.994288
  21 C     6.0000    0    12.011   24.532392   -2.476591   -4.558957
  22 C     6.0000    0    12.011   22.390142   -1.665196   -3.305586
  23 C     6.0000    0    12.011   22.678631    0.154003   -1.439500
  24 C     6.0000    0    12.011   17.439232   -1.708403    0.213464
  25 C     6.0000    0    12.011   14.891136   -2.240752    0.197324
  26 C     6.0000    0    12.011    5.668103   -5.956974    0.035916
  27 C     6.0000    0    12.011    3.118914   -6.560628    0.027205
  28 C     6.0000    0    12.011    1.375650   -4.617274    0.010627
  29 C     6.0000    0    12.011   -1.375353   -4.617553    0.000557
  30 C     6.0000    0    12.011   -3.118315   -6.561252    0.000087
  31 C     6.0000    0    12.011   -5.667616   -5.958107   -0.012944
  32 C     6.0000    0    12.011   -6.538610   -3.459729   -0.023791
  33 C     6.0000    0    12.011   -9.237844   -3.018234   -0.038223
  34 C     6.0000    0    12.011  -10.392565   -0.758695   -0.005015
  35 C     6.0000    0    12.011  -13.091946   -0.313919   -0.021450
  36 C     6.0000    0    12.011  -13.971209    2.175364    0.139547
  37 C     6.0000    0    12.011  -16.516788    2.722342    0.141627
  38 C     6.0000    0    12.011  -18.284162    0.779017   -0.036473
  39 N     7.0000    0    14.007  -20.871983    1.314467   -0.044124
  40 C     6.0000    0    12.011  -22.064222    3.081575   -1.552346
  41 C     6.0000    0    12.011  -21.067576    4.631504   -3.417559
  42 C     6.0000    0    12.011  -22.709273    6.205262   -4.700791
  43 C     6.0000    0    12.011  -25.286477    6.235958   -4.165142
  44 C     6.0000    0    12.011  -26.296395    4.663147   -2.345273
  45 C     6.0000    0    12.011  -24.684160    3.064084   -1.030425
  46 C     6.0000    0    12.011  -25.074753    1.195771    0.899201
  47 C     6.0000    0    12.011  -27.197376    0.353768    2.191683
  48 C     6.0000    0    12.011  -26.901771   -1.489109    4.014390
  49 C     6.0000    0    12.011  -24.523182   -2.467111    4.576121
  50 C     6.0000    0    12.011  -22.383433   -1.658808    3.316503
  51 C     6.0000    0    12.011  -22.675530    0.156413    1.447107
  52 C     6.0000    0    12.011  -17.439358   -1.709996   -0.211420
  53 C     6.0000    0    12.011  -14.891262   -2.242424   -0.197323
  54 C     6.0000    0    12.011   -4.748223   -1.497800   -0.024358
  55 C     6.0000    0    12.011   -2.221047   -2.091690   -0.012442
  56 H     1.0000    0     1.008    5.315451    0.460618    0.007081
  57 H     1.0000    0     1.008   10.368417   -4.719770    0.083645
  58 H     1.0000    0     1.008    9.262916    0.945225   -0.064560
  59 H     1.0000    0     1.008   12.622285    3.701584   -0.303640
  60 H     1.0000    0     1.008   17.158313    4.652280   -0.326620
  61 H     1.0000    0     1.008   19.072232    4.606629    3.864021
  62 H     1.0000    0     1.008   21.966324    7.448455    6.147269
  63 H     1.0000    0     1.008   26.496855    7.509098    5.205919
  64 H     1.0000    0     1.008   28.295061    4.666005    1.961695
  65 H     1.0000    0     1.008   29.039483    1.132378   -1.760001
  66 H     1.0000    0     1.008   28.539005   -2.185813   -5.012715
  67 H     1.0000    0     1.008   24.357536   -3.896472   -6.014819
  68 H     1.0000    0     1.008   20.551850   -2.409066   -3.784804
  69 H     1.0000    0     1.008   18.802000   -3.215783    0.401652
  70 H     1.0000    0     1.008   14.293886   -4.183520    0.354928
  71 H     1.0000    0     1.008    7.040906   -7.470287    0.049557
  72 H     1.0000    0     1.008    2.522031   -8.512032    0.034224
  73 H     1.0000    0     1.008   -2.521119   -8.512555    0.008747
  74 H     1.0000    0     1.008   -7.040180   -7.471700   -0.013810
  75 H     1.0000    0     1.008  -10.368347   -4.721614   -0.072980
  76 H     1.0000    0     1.008   -9.262689    0.943945    0.050147
  77 H     1.0000    0     1.008  -12.621558    3.700990    0.286858
  78 H     1.0000    0     1.008  -17.157526    4.651941    0.313493
  79 H     1.0000    0     1.008  -19.079513    4.596452   -3.873933
  80 H     1.0000    0     1.008  -21.977946    7.433588   -6.157580
  81 H     1.0000    0     1.008  -26.506439    7.497316   -5.206681
  82 H     1.0000    0     1.008  -28.298275    4.662056   -1.952113
  83 H     1.0000    0     1.008  -29.035490    1.136749    1.779000
  84 H     1.0000    0     1.008  -28.528773   -2.174592    5.037711
  85 H     1.0000    0     1.008  -24.345519   -3.883930    6.034626
  86 H     1.0000    0     1.008  -20.544265   -2.401982    3.793443
  87 H     1.0000    0     1.008  -18.802450   -3.217711   -0.394522
  88 H     1.0000    0     1.008  -14.294210   -4.185528   -0.351569
  89 H     1.0000    0     1.008   -5.315944    0.459552   -0.037270



           ************************************************************
           *        Program running with 40 parallel MPI-processes    *
           *              working on a common directory               *
           ************************************************************
------------------------------------------------------------------------------
                   ___                                                        
                  /   \      - P O W E R E D   B Y -                         
                 /     \                                                     
                 |  |  |   _    _      __       _____    __    __             
                 |  |  |  | |  | |    /  \     |  _  \  |  |  /  |          
                  \  \/   | |  | |   /    \    | | | |  |  | /  /          
                 / \  \   | |__| |  /  /\  \   | |_| |  |  |/  /          
                |  |  |   |  __  | /  /__\  \  |    /   |      \           
                |  |  |   | |  | | |   __   |  |    \   |  |\   \          
                \     /   | |  | | |  |  |  |  | |\  \  |  | \   \       
                 \___/    |_|  |_| |__|  |__|  |_| \__\ |__|  \__/        
                                                                              
                      - O R C A' S   B I G   F R I E N D -                    
                                      &                                       
                       - I N T E G R A L  F E E D E R -                       
                                                                              
 v1 FN, 2020, v2 2021                                                         
------------------------------------------------------------------------------


Reading SHARK input file /dev/shm/slurm.malcolms.9692366/9692366/freq/FREQ_OPT.SHARKINP.tmp ... ok
----------------------
SHARK INTEGRAL PACKAGE
----------------------

Number of atoms                             ...     90
Number of basis functions                   ...    954
Number of shells                            ...    438
Maximum angular momentum                    ...      2
Integral batch strategy                     ... SHARK/LIBINT Hybrid
RI-J (if used) integral strategy            ... SPLIT-RIJ (Revised 2003 algorithm where possible)
Printlevel                                  ...      1
Contraction scheme used                     ... SEGMENTED contraction
Coulomb Range Separation                    ... NOT USED
Exchange Range Separation                   ... NOT USED
Finite Nucleus Model                        ... NOT USED
Auxiliary Coulomb fitting basis             ... AVAILABLE
   # of basis functions in Aux-J            ...   3118
   # of shells in Aux-J                     ...   1010
   Maximum angular momentum in Aux-J        ...      4
Auxiliary J/K fitting basis                 ... NOT available
Auxiliary Correlation fitting basis         ... NOT available
Auxiliary 'external' fitting basis          ... NOT available
Integral threshold                          ...     2.500000e-11
Primitive cut-off                           ...     2.500000e-12
Primitive pair pre-selection threshold      ...     2.500000e-12

Calculating pre-screening integrals         ... done (  0.0 sec) Dimension = 438
Organizing shell pair data                  ... done (  0.2 sec)
Shell pair information
Total number of shell pairs                 ...     96141
Shell pairs after pre-screening             ...     31880
Total number of primitive shell pairs       ...    355733
Primitive shell pairs kept                  ...     73601
          la=0 lb=0:   9511 shell pairs
          la=1 lb=0:  11828 shell pairs
          la=1 lb=1:   3798 shell pairs
          la=2 lb=0:   3866 shell pairs
          la=2 lb=1:   2473 shell pairs
          la=2 lb=2:    404 shell pairs

Calculating one electron integrals          ... done (  0.1 sec)
Calculating RI/J V-Matrix + Cholesky decomp.... done (  0.5 sec)
Calculating Nuclear repulsion               ... done (  0.0 sec) ENN=   5642.712207876155 Eh

SHARK setup successfully completed in   1.2 seconds

Maximum memory used throughout the entire GTOINT-calculation: 58.3 MB


           ************************************************************
           *        Program running with 40 parallel MPI-processes    *
           *              working on a common directory               *
           ************************************************************

Diagonalization of the overlap matrix:
Smallest eigenvalue                        ... 2.145e-04
Time for diagonalization                   ...    0.217 sec
Threshold for overlap eigenvalues          ... 1.000e-08
Number of eigenvalues below threshold      ... 0
Time for construction of square roots      ...    0.125 sec
Total time needed                          ...    0.349 sec

Time for model grid setup =    0.574 sec

Loading Hartree-Fock densities                     ... done
Calculating cut-offs                               ... done
Initializing the effective Hamiltonian             ... done
Setting up the integral package (SHARK)            ... done
Starting the Coulomb interaction                   ... done (   0.2 sec)
Reading the grid                                   ... done
Mapping shells                                     ... done
Starting the XC term evaluation                    ... done (   0.1 sec)
  promolecular density results
     # of electrons  =    373.963187237
     EX              =   -302.725649614
     EC              =    -12.619346039
     EX+EC           =   -315.344995653
Transforming the Hamiltonian                       ... done (   0.1 sec)
Diagonalizing the Hamiltonian                      ... done (   0.2 sec)
Back transforming the eigenvectors                 ... done (   0.0 sec)
Now organizing SCF variables                       ... done
-------------------
DFT GRID GENERATION
-------------------

General Integration Accuracy     IntAcc      ... 4.959
Radial Grid Type                 RadialGrid  ... OptM3 with GC (2021)
Angular Grid (max. ang.)         AngularGrid ... 6 (Lebedev-590)
Angular grid pruning method      GridPruning ... 4 (adaptive)
Weight generation scheme         WeightScheme... Becke
Basis function cutoff            BFCut       ... 1.0000e-11
Integration weight cutoff        WCut        ... 1.0000e-14
Angular grids for H and He will be reduced by one unit
Partially contracted basis set               ... off
Rotationally invariant grid construction     ... off

Total number of grid points                  ...  1079455
Total number of batches                      ...    16909
Average number of points per batch           ...       63
Average number of grid points per atom       ...    11994
Time for grid setup =   11.821 sec

--------------------
COSX GRID GENERATION
--------------------

GRIDX 1
-------
General Integration Accuracy     IntAcc      ... 4.020
Radial Grid Type                 RadialGrid  ... OptM3 with GC (2021)
Angular Grid (max. ang.)         AngularGrid ... 2 (Lebedev-110)
Angular grid pruning method      GridPruning ... 4 (adaptive)
Weight generation scheme         WeightScheme... Becke
Basis function cutoff            BFCut       ... 1.0000e-11
Integration weight cutoff        WCut        ... 1.0000e-14
Angular grids for H and He will be reduced by one unit
Partially contracted basis set               ... on
Rotationally invariant grid construction     ... off

Total number of grid points                  ...   122608
Total number of batches                      ...     1963
Average number of points per batch           ...       62
Average number of grid points per atom       ...     1362
UseSFitting                                  ... on

GRIDX 2
-------
General Integration Accuracy     IntAcc      ... 4.338
Radial Grid Type                 RadialGrid  ... OptM3 with GC (2021)
Angular Grid (max. ang.)         AngularGrid ... 3 (Lebedev-194)
Angular grid pruning method      GridPruning ... 4 (adaptive)
Weight generation scheme         WeightScheme... Becke
Basis function cutoff            BFCut       ... 1.0000e-11
Integration weight cutoff        WCut        ... 1.0000e-14
Angular grids for H and He will be reduced by one unit
Partially contracted basis set               ... on
Rotationally invariant grid construction     ... off

Total number of grid points                  ...   268168
Total number of batches                      ...     4241
Average number of points per batch           ...       63
Average number of grid points per atom       ...     2980
UseSFitting                                  ... on

GRIDX 3
-------
General Integration Accuracy     IntAcc      ... 4.871
Radial Grid Type                 RadialGrid  ... OptM3 with GC (2021)
Angular Grid (max. ang.)         AngularGrid ... 4 (Lebedev-302)
Angular grid pruning method      GridPruning ... 4 (adaptive)
Weight generation scheme         WeightScheme... Becke
Basis function cutoff            BFCut       ... 1.0000e-11
Integration weight cutoff        WCut        ... 1.0000e-14
Angular grids for H and He will be reduced by one unit
Partially contracted basis set               ... on
Rotationally invariant grid construction     ... off

Total number of grid points                  ...   494727
Total number of batches                      ...     7781
Average number of points per batch           ...       63
Average number of grid points per atom       ...     5497
UseSFitting                                  ... on

Time for X-Grid setup             =    5.801 sec

--------------
SCF ITERATIONS
--------------
ITER       Energy         Delta-E        Max-DP      RMS-DP      [F,P]     Damp
               ***  Starting incremental Fock matrix formation  ***
  0  -2219.8655539708   0.000000000000 0.08001998  0.00115177  0.2168718 0.7000
  1  -2220.2444660652  -0.378912094441 0.04851464  0.00081548  0.0917804 0.7000
                               ***Turning on DIIS***
  2  -2220.4227475513  -0.178281486072 0.08478037  0.00154741  0.0319585 0.0000
  3  -2220.6955447470  -0.272797195729 0.03261300  0.00044827  0.0455312 0.0000
  4  -2220.7477467782  -0.052202031154 0.01391408  0.00013157  0.0175447 0.0000
  5  -2220.7506389918  -0.002892213613 0.00628495  0.00004804  0.0113690 0.0000
                      *** Initiating the SOSCF procedure ***
                           *** Shutting down DIIS ***
                      *** Re-Reading the Fockian *** 
                      *** Removing any level shift *** 
ITER      Energy       Delta-E        Grad      Rot      Max-DP    RMS-DP
  6  -2220.75096837  -0.0003293733  0.000458  0.000458  0.001785  0.000017
               *** Restarting incremental Fock matrix formation ***
  7  -2220.75100351  -0.0000351400  0.000383  0.002381  0.002321  0.000017
  8  -2220.75099046   0.0000130437  0.000639  0.000800  0.001613  0.000010
  9  -2220.75101471  -0.0000242532  0.000036  0.000197  0.000169  0.000002
 10  -2220.75101458   0.0000001361  0.000054  0.000104  0.000125  0.000001
 11  -2220.75101486  -0.0000002773  0.000016  0.000044  0.000041  0.000001
 12  -2220.75101490  -0.0000000417  0.000014  0.000028  0.000034  0.000000
 13  -2220.75101483   0.0000000669  0.000003  0.000010  0.000022  0.000000
 14  -2220.75101482   0.0000000155  0.000006  0.000006  0.000015  0.000000
                  ***Gradient check signals convergence***
              ***Rediagonalizing the Fockian in SOSCF/NRSCF***

               *****************************************************
               *                     SUCCESS                       *
               *           SCF CONVERGED AFTER  15 CYCLES          *
               *****************************************************

Old exchange energy                            =    -77.080925929 Eh
New exchange energy                            =    -77.080978149 Eh
Exchange energy change after final integration =     -0.000052220 Eh
Total energy after final integration           =  -2220.751067039 Eh
Final COS-X integration done in                =    17.336 sec
Total Energy       :        -2220.75106704 Eh          -60429.70872 eV
  Last Energy change         ...   -4.0764e-09  Tolerance :   1.0000e-08
  Last MAX-Density change    ...    4.8850e-15  Tolerance :   1.0000e-07
             **** THE GBW FILE WAS UPDATED (/dev/shm/slurm.malcolms.9692366/9692366/freq/FREQ_OPT.gbw) ****
             **** DENSITY /dev/shm/slurm.malcolms.9692366/9692366/freq/FREQ_OPT.scfp WAS UPDATED ****
             **** ENERGY FILE WAS UPDATED (/dev/shm/slurm.malcolms.9692366/9692366/freq/FREQ_OPT.en.tmp) ****
             **** THE GBW FILE WAS UPDATED (/dev/shm/slurm.malcolms.9692366/9692366/freq/FREQ_OPT.gbw) ****
             **** DENSITY /dev/shm/slurm.malcolms.9692366/9692366/freq/FREQ_OPT.scfp WAS UPDATED ****
----------------
ORBITAL ENERGIES
----------------

  NO   OCC          E(Eh)            E(eV) 
   0   2.0000     -19.212293      -522.7931 
   1   2.0000     -14.450192      -393.2097 
   2   2.0000     -14.450190      -393.2097 
   3   2.0000     -10.327080      -281.0141 
   4   2.0000     -10.292301      -280.0677 
   5   2.0000     -10.292301      -280.0677 
   6   2.0000     -10.274915      -279.5946 
   7   2.0000     -10.274913      -279.5946 
   8   2.0000     -10.274789      -279.5912 
   9   2.0000     -10.274789      -279.5912 
  10   2.0000     -10.262434      -279.2550 
  11   2.0000     -10.262427      -279.2548 
  12   2.0000     -10.261586      -279.2319 
  13   2.0000     -10.261444      -279.2281 
  14   2.0000     -10.257579      -279.1229 
  15   2.0000     -10.257578      -279.1229 
  16   2.0000     -10.257528      -279.1215 
  17   2.0000     -10.257503      -279.1208 
  18   2.0000     -10.257407      -279.1182 
  19   2.0000     -10.257399      -279.1180 
  20   2.0000     -10.256158      -279.0842 
  21   2.0000     -10.256054      -279.0814 
  22   2.0000     -10.252250      -278.9779 
  23   2.0000     -10.252249      -278.9779 
  24   2.0000     -10.251725      -278.9636 
  25   2.0000     -10.251723      -278.9636 
  26   2.0000     -10.251473      -278.9568 
  27   2.0000     -10.251472      -278.9567 
  28   2.0000     -10.251417      -278.9552 
  29   2.0000     -10.251417      -278.9552 
  30   2.0000     -10.250742      -278.9369 
  31   2.0000     -10.250741      -278.9369 
  32   2.0000     -10.250679      -278.9352 
  33   2.0000     -10.250678      -278.9351 
  34   2.0000     -10.249350      -278.8990 
  35   2.0000     -10.249325      -278.8983 
  36   2.0000     -10.237500      -278.5765 
  37   2.0000     -10.237498      -278.5765 
  38   2.0000     -10.237416      -278.5742 
  39   2.0000     -10.237414      -278.5742 
  40   2.0000     -10.237272      -278.5703 
  41   2.0000     -10.237272      -278.5703 
  42   2.0000     -10.237114      -278.5660 
  43   2.0000     -10.237113      -278.5660 
  44   2.0000     -10.236868      -278.5593 
  45   2.0000     -10.236868      -278.5593 
  46   2.0000     -10.236629      -278.5528 
  47   2.0000     -10.236629      -278.5528 
  48   2.0000     -10.235652      -278.5262 
  49   2.0000     -10.235651      -278.5262 
  50   2.0000     -10.235335      -278.5176 
  51   2.0000     -10.235334      -278.5176 
  52   2.0000     -10.229572      -278.3608 
  53   2.0000     -10.229571      -278.3608 
  54   2.0000     -10.229318      -278.3539 
  55   2.0000     -10.229318      -278.3539 
  56   2.0000      -1.068958       -29.0878 
  57   2.0000      -1.030895       -28.0521 
  58   2.0000      -1.030895       -28.0521 
  59   2.0000      -0.930778       -25.3277 
  60   2.0000      -0.908289       -24.7158 
  61   2.0000      -0.907871       -24.7044 
  62   2.0000      -0.897302       -24.4168 
  63   2.0000      -0.877573       -23.8800 
  64   2.0000      -0.876193       -23.8424 
  65   2.0000      -0.874520       -23.7969 
  66   2.0000      -0.874518       -23.7968 
  67   2.0000      -0.858819       -23.3697 
  68   2.0000      -0.835323       -22.7303 
  69   2.0000      -0.826669       -22.4948 
  70   2.0000      -0.810315       -22.0498 
  71   2.0000      -0.807773       -21.9806 
  72   2.0000      -0.794601       -21.6222 
  73   2.0000      -0.787504       -21.4291 
  74   2.0000      -0.787355       -21.4250 
  75   2.0000      -0.785006       -21.3611 
  76   2.0000      -0.781744       -21.2723 
  77   2.0000      -0.773244       -21.0410 
  78   2.0000      -0.773122       -21.0377 
  79   2.0000      -0.767924       -20.8963 
  80   2.0000      -0.754526       -20.5317 
  81   2.0000      -0.738770       -20.1029 
  82   2.0000      -0.738743       -20.1022 
  83   2.0000      -0.737548       -20.0697 
  84   2.0000      -0.722599       -19.6629 
  85   2.0000      -0.703880       -19.1535 
  86   2.0000      -0.688375       -18.7316 
  87   2.0000      -0.676972       -18.4213 
  88   2.0000      -0.662443       -18.0260 
  89   2.0000      -0.655507       -17.8373 
  90   2.0000      -0.654096       -17.7988 
  91   2.0000      -0.645329       -17.5603 
  92   2.0000      -0.639207       -17.3937 
  93   2.0000      -0.631106       -17.1733 
  94   2.0000      -0.625872       -17.0308 
  95   2.0000      -0.624389       -16.9905 
  96   2.0000      -0.621291       -16.9062 
  97   2.0000      -0.607533       -16.5318 
  98   2.0000      -0.603791       -16.4300 
  99   2.0000      -0.595446       -16.2029 
 100   2.0000      -0.594762       -16.1843 
 101   2.0000      -0.594520       -16.1777 
 102   2.0000      -0.587700       -15.9921 
 103   2.0000      -0.574950       -15.6452 
 104   2.0000      -0.564820       -15.3695 
 105   2.0000      -0.564304       -15.3555 
 106   2.0000      -0.542163       -14.7530 
 107   2.0000      -0.541840       -14.7442 
 108   2.0000      -0.539561       -14.6822 
 109   2.0000      -0.535439       -14.5700 
 110   2.0000      -0.531604       -14.4657 
 111   2.0000      -0.528787       -14.3890 
 112   2.0000      -0.521645       -14.1947 
 113   2.0000      -0.511873       -13.9288 
 114   2.0000      -0.511299       -13.9131 
 115   2.0000      -0.494280       -13.4500 
 116   2.0000      -0.493784       -13.4365 
 117   2.0000      -0.485447       -13.2097 
 118   2.0000      -0.484568       -13.1858 
 119   2.0000      -0.480137       -13.0652 
 120   2.0000      -0.474481       -12.9113 
 121   2.0000      -0.474200       -12.9036 
 122   2.0000      -0.474053       -12.8996 
 123   2.0000      -0.472369       -12.8538 
 124   2.0000      -0.470707       -12.8086 
 125   2.0000      -0.465500       -12.6669 
 126   2.0000      -0.464548       -12.6410 
 127   2.0000      -0.460368       -12.5272 
 128   2.0000      -0.459937       -12.5155 
 129   2.0000      -0.457046       -12.4368 
 130   2.0000      -0.456211       -12.4141 
 131   2.0000      -0.455474       -12.3941 
 132   2.0000      -0.455270       -12.3885 
 133   2.0000      -0.452947       -12.3253 
 134   2.0000      -0.449377       -12.2282 
 135   2.0000      -0.446878       -12.1602 
 136   2.0000      -0.445117       -12.1122 
 137   2.0000      -0.444705       -12.1010 
 138   2.0000      -0.442400       -12.0383 
 139   2.0000      -0.439037       -11.9468 
 140   2.0000      -0.433938       -11.8081 
 141   2.0000      -0.433831       -11.8052 
 142   2.0000      -0.420395       -11.4395 
 143   2.0000      -0.415580       -11.3085 
 144   2.0000      -0.413883       -11.2623 
 145   2.0000      -0.412668       -11.2293 
 146   2.0000      -0.408449       -11.1144 
 147   2.0000      -0.403276       -10.9737 
 148   2.0000      -0.400412       -10.8958 
 149   2.0000      -0.399103       -10.8602 
 150   2.0000      -0.386730       -10.5235 
 151   2.0000      -0.385493       -10.4898 
 152   2.0000      -0.382010       -10.3950 
 153   2.0000      -0.381839       -10.3904 
 154   2.0000      -0.380429       -10.3520 
 155   2.0000      -0.380253       -10.3472 
 156   2.0000      -0.377523       -10.2729 
 157   2.0000      -0.377239       -10.2652 
 158   2.0000      -0.374809       -10.1991 
 159   2.0000      -0.373471       -10.1627 
 160   2.0000      -0.369361       -10.0508 
 161   2.0000      -0.366934        -9.9848 
 162   2.0000      -0.362362        -9.8604 
 163   2.0000      -0.358743        -9.7619 
 164   2.0000      -0.355385        -9.6705 
 165   2.0000      -0.352512        -9.5923 
 166   2.0000      -0.352506        -9.5922 
 167   2.0000      -0.351996        -9.5783 
 168   2.0000      -0.347618        -9.4592 
 169   2.0000      -0.331558        -9.0221 
 170   2.0000      -0.310535        -8.4501 
 171   2.0000      -0.301549        -8.2056 
 172   2.0000      -0.300303        -8.1717 
 173   2.0000      -0.291365        -7.9284 
 174   2.0000      -0.287256        -7.8166 
 175   2.0000      -0.286807        -7.8044 
 176   2.0000      -0.286792        -7.8040 
 177   2.0000      -0.281487        -7.6596 
 178   2.0000      -0.274632        -7.4731 
 179   2.0000      -0.272703        -7.4206 
 180   2.0000      -0.272702        -7.4206 
 181   2.0000      -0.248687        -6.7671 
 182   2.0000      -0.231609        -6.3024 
 183   2.0000      -0.231608        -6.3024 
 184   2.0000      -0.228694        -6.2231 
[...]
 652   0.0000       1.742423        47.4137 
 653   0.0000       1.743304        47.4377 
 654   0.0000       1.746299        47.5192 
 655   0.0000       1.747865        47.5618 
 656   0.0000       1.751010        47.6474 
 657   0.0000       1.751776        47.6682 
 658   0.0000       1.755635        47.7732 
 659   0.0000       1.758328        47.8465 
 660   0.0000       1.758906        47.8623 
 661   0.0000       1.760585        47.9079 
 662   0.0000       1.764210        48.0066 
 663   0.0000       1.767228        48.0887 
 664   0.0000       1.768427        48.1213 
 665   0.0000       1.769792        48.1585 
 666   0.0000       1.769854        48.1602 
 667   0.0000       1.774417        48.2843 
 668   0.0000       1.774896        48.2974 
 669   0.0000       1.783098        48.5206 
 670   0.0000       1.783491        48.5312 
 671   0.0000       1.784125        48.5485 
 672   0.0000       1.784716        48.5646 
 673   0.0000       1.789532        48.6956 
 674   0.0000       1.794711        48.8366 
 675   0.0000       1.803981        49.0888 
 676   0.0000       1.804224        49.0954 
 677   0.0000       1.806801        49.1656 
 678   0.0000       1.807862        49.1944 
 679   0.0000       1.812639        49.3244 
 680   0.0000       1.815651        49.4064 
 681   0.0000       1.819703        49.5166 
 682   0.0000       1.820158        49.5290 
 683   0.0000       1.820286        49.5325 
 684   0.0000       1.821787        49.5733 
 685   0.0000       1.822413        49.5904 
 686   0.0000       1.823988        49.6332 
 687   0.0000       1.826616        49.7048 
 688   0.0000       1.838249        50.0213 
 689   0.0000       1.838301        50.0227 
 690   0.0000       1.844926        50.2030 
 691   0.0000       1.847258        50.2664 
 692   0.0000       1.852457        50.4079 
 693   0.0000       1.860218        50.6191 
 694   0.0000       1.872784        50.9610 
 695   0.0000       1.877003        51.0758 
 696   0.0000       1.895294        51.5736 
 697   0.0000       1.895377        51.5758 
 698   0.0000       1.899917        51.6994 
 699   0.0000       1.905084        51.8400 
 700   0.0000       1.911695        52.0199 
 701   0.0000       1.913681        52.0739 
 702   0.0000       1.914785        52.1039 
 703   0.0000       1.914923        52.1077 
 704   0.0000       1.921167        52.2776 
 705   0.0000       1.921508        52.2869 
 706   0.0000       1.934357        52.6365 
 707   0.0000       1.940699        52.8091 
 708   0.0000       1.943677        52.8901 
 709   0.0000       1.946331        52.9624 
 710   0.0000       1.946423        52.9649 
 711   0.0000       1.947543        52.9954 
 712   0.0000       1.956975        53.2520 
 713   0.0000       1.958398        53.2907 
 714   0.0000       1.958937        53.3054 
 715   0.0000       1.963285        53.4237 
 716   0.0000       1.966376        53.5078 
 717   0.0000       1.966462        53.5102 
 718   0.0000       1.971851        53.6568 
 719   0.0000       1.976595        53.7859 
 720   0.0000       1.976655        53.7875 
 721   0.0000       1.985419        54.0260 
 722   0.0000       1.987996        54.0961 
 723   0.0000       1.989441        54.1354 
 724   0.0000       1.993219        54.2382 
 725   0.0000       1.993851        54.2554 
 726   0.0000       1.999243        54.4022 
 727   0.0000       2.001659        54.4679 
 728   0.0000       2.003130        54.5079 
 729   0.0000       2.006399        54.5969 
 730   0.0000       2.010846        54.7179 
 731   0.0000       2.017909        54.9101 
 732   0.0000       2.025662        55.1211 
 733   0.0000       2.031501        55.2800 
 734   0.0000       2.037245        55.4362 
 735   0.0000       2.038422        55.4683 
 736   0.0000       2.047330        55.7107 
 737   0.0000       2.055816        55.9416 
 738   0.0000       2.058967        56.0273 
 739   0.0000       2.063379        56.1474 
 740   0.0000       2.064058        56.1659 
 741   0.0000       2.064474        56.1772 
 742   0.0000       2.065854        56.2148 
 743   0.0000       2.066604        56.2351 
 744   0.0000       2.067899        56.2704 
 745   0.0000       2.077049        56.5194 
 746   0.0000       2.079720        56.5921 
 747   0.0000       2.081766        56.6477 
 748   0.0000       2.082346        56.6635 
 749   0.0000       2.090996        56.8989 
 750   0.0000       2.107845        57.3574 
 751   0.0000       2.110753        57.4365 
 752   0.0000       2.122343        57.7519 
 753   0.0000       2.124359        57.8068 
 754   0.0000       2.126884        57.8754 
 755   0.0000       2.128969        57.9322 
 756   0.0000       2.129287        57.9408 
 757   0.0000       2.132583        58.0305 
 758   0.0000       2.139598        58.2214 
 759   0.0000       2.139638        58.2225 
 760   0.0000       2.140317        58.2410 
 761   0.0000       2.143651        58.3317 
 762   0.0000       2.149951        58.5031 
 763   0.0000       2.152057        58.5604 
 764   0.0000       2.152798        58.5806 
 765   0.0000       2.155337        58.6497 
 766   0.0000       2.159838        58.7722 
 767   0.0000       2.169906        59.0461 
 768   0.0000       2.171239        59.0824 
 769   0.0000       2.172753        59.1236 
 770   0.0000       2.177061        59.2409 
 771   0.0000       2.185330        59.4659 
 772   0.0000       2.185617        59.4737 
 773   0.0000       2.185904        59.4815 
 774   0.0000       2.188516        59.5526 
 775   0.0000       2.193910        59.6993 
 776   0.0000       2.196104        59.7590 
 777   0.0000       2.202541        59.9342 
 778   0.0000       2.208169        60.0873 
 779   0.0000       2.210852        60.1603 
 780   0.0000       2.212068        60.1934 
 781   0.0000       2.213367        60.2288 
 782   0.0000       2.221364        60.4464 
 783   0.0000       2.223923        60.5160 
 784   0.0000       2.227351        60.6093 
 785   0.0000       2.233169        60.7676 
 786   0.0000       2.236144        60.8486 
 787   0.0000       2.240487        60.9667 
 788   0.0000       2.242676        61.0263 
 789   0.0000       2.245515        61.1036 
 790   0.0000       2.261098        61.5276 
 791   0.0000       2.283552        62.1386 
 792   0.0000       2.289468        62.2996 
 793   0.0000       2.290480        62.3271 
 794   0.0000       2.293598        62.4120 
 795   0.0000       2.298407        62.5428 
 796   0.0000       2.303926        62.6930 
 797   0.0000       2.304364        62.7049 
 798   0.0000       2.305178        62.7271 
 799   0.0000       2.306044        62.7506 
 800   0.0000       2.307772        62.7977 
 801   0.0000       2.308724        62.8236 
 802   0.0000       2.311689        62.9043 
 803   0.0000       2.314148        62.9712 
 804   0.0000       2.318532        63.0905 
 805   0.0000       2.326373        63.3038 
 806   0.0000       2.333439        63.4961 
 807   0.0000       2.339829        63.6700 
 808   0.0000       2.340981        63.7013 
 809   0.0000       2.342036        63.7300 
 810   0.0000       2.345849        63.8338 
 811   0.0000       2.347671        63.8834 
 812   0.0000       2.347923        63.8902 
 813   0.0000       2.348737        63.9124 
 814   0.0000       2.354038        64.0566 
 815   0.0000       2.359772        64.2127 
 816   0.0000       2.368959        64.4627 
 817   0.0000       2.379875        64.7597 
 818   0.0000       2.384248        64.8787 
 819   0.0000       2.390757        65.0558 
 820   0.0000       2.404502        65.4298 
 821   0.0000       2.404648        65.4338 
 822   0.0000       2.409780        65.5734 
 823   0.0000       2.411570        65.6222 
 824   0.0000       2.413115        65.6642 
 825   0.0000       2.419786        65.8457 
 826   0.0000       2.419850        65.8475 
 827   0.0000       2.427864        66.0655 
 828   0.0000       2.429571        66.1120 
 829   0.0000       2.473349        67.3033 
 830   0.0000       2.477869        67.4262 
 831   0.0000       2.480805        67.5061 
 832   0.0000       2.497942        67.9725 
 833   0.0000       2.497987        67.9737 
 834   0.0000       2.514033        68.4103 
 835   0.0000       2.527718        68.7827 
 836   0.0000       2.528712        68.8098 
 837   0.0000       2.538461        69.0750 
 838   0.0000       2.544548        69.2407 
 839   0.0000       2.550635        69.4063 
 840   0.0000       2.559856        69.6572 
 841   0.0000       2.563034        69.7437 
 842   0.0000       2.572582        70.0035 
 843   0.0000       2.580412        70.2166 
 844   0.0000       2.581176        70.2374 
 845   0.0000       2.589694        70.4691 
 846   0.0000       2.593882        70.5831 
 847   0.0000       2.602829        70.8266 
 848   0.0000       2.603047        70.8325 
 849   0.0000       2.603899        70.8557 
 850   0.0000       2.608228        70.9735 
 851   0.0000       2.612797        71.0978 
 852   0.0000       2.621931        71.3464 
 853   0.0000       2.624242        71.4093 
 854   0.0000       2.625522        71.4441 
 855   0.0000       2.630972        71.5924 
 856   0.0000       2.631769        71.6141 
 857   0.0000       2.640988        71.8649 
 858   0.0000       2.644600        71.9632 
 859   0.0000       2.649083        72.0852 
 860   0.0000       2.652990        72.1915 
 861   0.0000       2.657303        72.3089 
 862   0.0000       2.671733        72.7015 
 863   0.0000       2.673546        72.7509 
 864   0.0000       2.675987        72.8173 
 865   0.0000       2.678069        72.8740 
 866   0.0000       2.693181        73.2852 
 867   0.0000       2.696920        73.3869 
 868   0.0000       2.697086        73.3915 
 869   0.0000       2.698694        73.4352 
 870   0.0000       2.705887        73.6309 
 871   0.0000       2.709335        73.7247 
 872   0.0000       2.723756        74.1172 
 873   0.0000       2.727147        74.2094 
 874   0.0000       2.728738        74.2527 
 875   0.0000       2.737536        74.4921 
 876   0.0000       2.738004        74.5049 
 877   0.0000       2.743525        74.6551 
 878   0.0000       2.748011        74.7772 
 879   0.0000       2.748064        74.7786 
 880   0.0000       2.748132        74.7805 
 881   0.0000       2.748570        74.7924 
 882   0.0000       2.750704        74.8505 
 883   0.0000       2.750949        74.8571 
 884   0.0000       2.752716        74.9052 
 885   0.0000       2.761508        75.1444 
 886   0.0000       2.761567        75.1461 
 887   0.0000       2.781260        75.6819 
 888   0.0000       2.781969        75.7012 
 889   0.0000       2.793962        76.0276 
 890   0.0000       2.794121        76.0319 
 891   0.0000       2.804252        76.3076 
 892   0.0000       2.810419        76.4754 
 893   0.0000       2.810654        76.4818 
 894   0.0000       2.846218        77.4495 
 895   0.0000       2.850178        77.5573 
 896   0.0000       2.851467        77.5924 
 897   0.0000       2.855716        77.7080 
 898   0.0000       2.865248        77.9674 
 899   0.0000       2.879961        78.3677 
 900   0.0000       2.880085        78.3711 
 901   0.0000       2.884596        78.4938 
 902   0.0000       2.884634        78.4949 
 903   0.0000       2.898626        78.8756 
 904   0.0000       2.899000        78.8858 
 905   0.0000       2.900954        78.9390 
 906   0.0000       2.904279        79.0294 
 907   0.0000       2.914292        79.3019 
 908   0.0000       2.919360        79.4398 
 909   0.0000       2.932925        79.8089 
 910   0.0000       2.966673        80.7273 
 911   0.0000       2.969559        80.8058 
 912   0.0000       2.979310        81.0711 
 913   0.0000       2.983575        81.1872 
 914   0.0000       3.000888        81.6583 
 915   0.0000       3.004886        81.7671 
 916   0.0000       3.006797        81.8191 
 917   0.0000       3.050990        83.0217 
 918   0.0000       3.051175        83.0267 
 919   0.0000       3.053305        83.0846 
 920   0.0000       3.066688        83.4488 
 921   0.0000       3.087135        84.0052 
 922   0.0000       3.104760        84.4848 
 923   0.0000       3.104840        84.4870 
 924   0.0000       3.114049        84.7376 
 925   0.0000       3.130135        85.1753 
 926   0.0000       3.131888        85.2230 
 927   0.0000       3.132106        85.2289 
 928   0.0000       3.134741        85.3006 
 929   0.0000       3.146228        85.6132 
 930   0.0000       3.166194        86.1565 
 931   0.0000       3.176473        86.4362 
 932   0.0000       3.178579        86.4935 
 933   0.0000       3.213226        87.4363 
 934   0.0000       3.285157        89.3937 
 935   0.0000       3.298817        89.7654 
 936   0.0000       3.312369        90.1341 
 937   0.0000       3.331254        90.6480 
 938   0.0000       3.350718        91.1777 
 939   0.0000       3.354265        91.2742 
 940   0.0000       3.371878        91.7535 
 941   0.0000       3.380417        91.9858 
 942   0.0000       3.446289        93.7783 
 943   0.0000       3.447517        93.8117 
 944   0.0000       3.484143        94.8083 
 945   0.0000       3.525872        95.9439 
 946   0.0000       3.578184        97.3673 
 947   0.0000       3.579696        97.4085 
 948   0.0000       3.657212        99.5178 
 949   0.0000       3.661434        99.6327 
 950   0.0000       3.671760        99.9137 
 951   0.0000       3.694265       100.5261 
 952   0.0000       3.723357       101.3177 
 953   0.0000       3.723377       101.3182 
Total SCF time: 0 days 0 hours 2 min 0 sec 

Maximum memory used throughout the entire SCF-calculation: 316.0 MB


-------------------------------------------------------------------------------
                          DFT DISPERSION CORRECTION                            
                                                                               
                              DFTD3 V3.1  Rev 1                                
                          USING Becke-Johnson damping                          
-------------------------------------------------------------------------------
-------------------------   ----------------
Dispersion correction           -0.121719392
-------------------------   ----------------


-------------------------   --------------------
FINAL SINGLE POINT ENERGY     -2220.882025631716
-------------------------   --------------------

                                *** OPTIMIZATION RUN DONE ***

                            ***************************************
                            *     ORCA property calculations      *
                            ***************************************

                                    ---------------------
                                    Active property flags
                                    ---------------------
   (+) Dipole Moment


------------------------------------------------------------------------------
                       ORCA ELECTRIC PROPERTIES CALCULATION
------------------------------------------------------------------------------

Dipole Moment Calculation                       ... on
Quadrupole Moment Calculation                   ... off
Polarizability Calculation                      ... off
GBWName                                         ... /dev/shm/slurm.malcolms.9692366/9692366/freq/FREQ_OPT.gbw
Electron density                                ... /dev/shm/slurm.malcolms.9692366/9692366/freq/FREQ_OPT.scfp
The origin for moment calculation is the CENTER OF MASS  = ( 0.000101, -0.006765  0.001812)

-------------
DIPOLE MOMENT
-------------
                                X             Y             Z
Electronic contribution:      0.00009      -0.15657       0.01178
Nuclear contribution   :      0.00011      -1.20515      -0.00999
                        -----------------------------------------
Total Dipole Moment    :      0.00020      -1.36171       0.00180
                        -----------------------------------------
Magnitude (a.u.)       :      1.36171
Magnitude (Debye)      :      3.46120



--------------------
Rotational spectrum 
--------------------
 
Rotational constants in cm-1:     0.005165     0.000247     0.000242 
Rotational constants in MHz :   154.837890     7.392241     7.242398 

 Dipole components along the rotational axes: 
x,y,z [a.u.] :    -0.000128    -1.361712    -0.001509 
x,y,z [Debye]:    -0.000326    -3.461197    -0.003836 

 


           ************************************************************
           *        Program running with 40 parallel MPI-processes    *
           *              working on a common directory               *
           ************************************************************

-------------------------------------------------------------------------------
                               ORCA SCF HESSIAN
-------------------------------------------------------------------------------

                   --------- SHARK INITIALIZATION DONE ---------

Hessian of the Kohn-Sham DFT energy:
Kohn-Sham wavefunction type                      ... RKS
Hartree-Fock exchange scaling                    ...    0.250
Number of operators                              ...    1
Number of atoms                                  ...   90
Basis set dimensions                             ...  954
Integral neglect threshold                       ... 2.5e-11
Integral primitive cutoff                        ... 2.5e-12

Setting up DFT Hessian calculations              ... 

HESS GRID
---------

General Integration Accuracy     IntAcc      ... 4.959
Radial Grid Type                 RadialGrid  ... OptM3 with GC (2021)
Angular Grid (max. ang.)         AngularGrid ... 7 (Lebedev-770)
Angular grid pruning method      GridPruning ... 4 (adaptive)
Weight generation scheme         WeightScheme... Becke
Basis function cutoff            BFCut       ... 1.0000e-11
Integration weight cutoff        WCut        ... 1.0000e-14
Angular grids for H and He will be reduced by one unit
Partially contracted basis set               ... off
Rotationally invariant grid construction     ... off

Total number of grid points                  ...  1549083
Total number of batches                      ...    24254
Average number of points per batch           ...       63
Average number of grid points per atom       ...    17212

Building densities                               ... done   (      0.2 sec)
Calculating rho(r) on the grid                   ... done   (      0.8 sec)
Building xc-kernel on the grid                   ... done   (      0.3 sec)
                                                     done   (     26.5 sec)

Nuclear repulsion Hessian  (SHARK)               ... done   (      0.0 sec)

----------------------------------------------
Forming right-hand sides of CP-SCF equations     ...
----------------------------------------------
One electron integral derivatives  (SHARK)       ... done   (      2.3 sec)
Transforming the overlap derivative matrices     ... done   (      1.6 sec)
Making the Q(x) pseudodensities                  ... done   (      1.6 sec)
Adding the E*S(x)*S(y) terms to the Hessian      ... done   (      3.8 sec)
Calculating energy weighted overlap derivatives  ... done   (      0.5 sec)
Two electron integral derivatives (SHARK-RI)     ... done   (    189.0 sec)
Exchange-correlation integral derivatives        ... done   (     77.7 sec)
tr(F(y)Q(x)) contribution to the Hessian         ... done   (      6.0 sec)

Response fock operator R(S(x)) (SHARK-RIJCOSX)   ... 
IBatch  1 (of  2):                                   
ORCA finished by error termination in SCF Hessian
Calling Command: mpirun -np 40  /project/a/aspuru/orca/orca503/orca_scfhess_mpi /dev/shm/slurm.malcolms.9692366/9692366/freq/FREQ_OPT.scfhess.inp /dev/shm/slurm.malcolms.9692366/9692366/freq/FREQ_OPT 
[file orca_tools/qcmsg.cpp, line 465]: 
  .... aborting the run

