
                                 *****************
                                 * O   R   C   A *
                                 *****************

                                            #,                                       
                                            ###                                      
                                            ####                                     
                                            #####                                    
                                            ######                                   
                                           ########,                                 
                                     ,,################,,,,,                         
                               ,,#################################,,                 
                          ,,##########################################,,             
                       ,#########################################, ''#####,          
                    ,#############################################,,   '####,        
                  ,##################################################,,,,####,       
                ,###########''''           ''''###############################       
              ,#####''   ,,,,##########,,,,          '''####'''          '####       
            ,##' ,,,,###########################,,,                        '##       
           ' ,,###''''                  '''############,,,                           
         ,,##''                                '''############,,,,        ,,,,,,###''
      ,#''                                            '''#######################'''  
     '                                                          ''''####''''         
             ,#######,   #######,   ,#######,      ##                                
            ,#'     '#,  ##    ##  ,#'     '#,    #''#        ######   ,####,        
            ##       ##  ##   ,#'  ##            #'  '#       #        #'  '#        
            ##       ##  #######   ##           ,######,      #####,   #    #        
            '#,     ,#'  ##    ##  '#,     ,#' ,#      #,         ##   #,  ,#        
             '#######'   ##     ##  '#######'  #'      '#     #####' # '####'        



                  #######################################################
                  #                        -***-                        #
                  #          Department of theory and spectroscopy      #
                  #    Directorship and core code : Frank Neese         #
                  #        Max Planck Institute fuer Kohlenforschung    #
                  #                Kaiser Wilhelm Platz 1               #
                  #                 D-45470 Muelheim/Ruhr               #
                  #                      Germany                        #
                  #                                                     #
                  #                  All rights reserved                #
                  #                        -***-                        #
                  #######################################################


                         Program Version 5.0.3 -  RELEASE  -


 With contributions from (in alphabetic order):
   Daniel Aravena         : Magnetic Suceptibility
   Michael Atanasov       : Ab Initio Ligand Field Theory (pilot matlab implementation)
   Alexander A. Auer      : GIAO ZORA, VPT2 properties, NMR spectrum
   Ute Becker             : Parallelization
   Giovanni Bistoni       : ED, misc. LED, open-shell LED, HFLD
   Martin Brehm           : Molecular dynamics
   Dmytro Bykov           : SCF Hessian
   Vijay G. Chilkuri      : MRCI spin determinant printing, contributions to CSF-ICE
   Dipayan Datta          : RHF DLPNO-CCSD density
   Achintya Kumar Dutta   : EOM-CC, STEOM-CC
   Dmitry Ganyushin       : Spin-Orbit,Spin-Spin,Magnetic field MRCI
   Miquel Garcia          : C-PCM and meta-GGA Hessian, CC/C-PCM, Gaussian charge scheme
   Yang Guo               : DLPNO-NEVPT2, F12-NEVPT2, CIM, IAO-localization
   Andreas Hansen         : Spin unrestricted coupled pair/coupled cluster methods
   Benjamin Helmich-Paris : MC-RPA, TRAH-SCF, COSX integrals
   Lee Huntington         : MR-EOM, pCC
   Robert Izsak           : Overlap fitted RIJCOSX, COSX-SCS-MP3, EOM
   Marcus Kettner         : VPT2
   Christian Kollmar      : KDIIS, OOCD, Brueckner-CCSD(T), CCSD density, CASPT2, CASPT2-K
   Simone Kossmann        : Meta GGA functionals, TD-DFT gradient, OOMP2, MP2 Hessian
   Martin Krupicka        : Initial AUTO-CI
   Lucas Lang             : DCDCAS
   Marvin Lechner         : AUTO-CI (C++ implementation), FIC-MRCC
   Dagmar Lenk            : GEPOL surface, SMD
   Dimitrios Liakos       : Extrapolation schemes; Compound Job, initial MDCI parallelization
   Dimitrios Manganas     : Further ROCIS development; embedding schemes
   Dimitrios Pantazis     : SARC Basis sets
   Anastasios Papadopoulos: AUTO-CI, single reference methods and gradients
   Taras Petrenko         : DFT Hessian,TD-DFT gradient, ASA, ECA, R-Raman, ABS, FL, XAS/XES, NRVS
   Peter Pinski           : DLPNO-MP2, DLPNO-MP2 Gradient
   Christoph Reimann      : Effective Core Potentials
   Marius Retegan         : Local ZFS, SOC
   Christoph Riplinger    : Optimizer, TS searches, QM/MM, DLPNO-CCSD(T), (RO)-DLPNO pert. Triples
   Tobias Risthaus        : Range-separated hybrids, TD-DFT gradient, RPA, STAB
   Michael Roemelt        : Original ROCIS implementation
   Masaaki Saitow         : Open-shell DLPNO-CCSD energy and density
   Barbara Sandhoefer     : DKH picture change effects
   Avijit Sen             : IP-ROCIS
   Kantharuban Sivalingam : CASSCF convergence, NEVPT2, FIC-MRCI
   Bernardo de Souza      : ESD, SOC TD-DFT
   Georgi Stoychev        : AutoAux, RI-MP2 NMR, DLPNO-MP2 response
   Willem Van den Heuvel  : Paramagnetic NMR
   Boris Wezisla          : Elementary symmetry handling
   Frank Wennmohs         : Technical directorship


 We gratefully acknowledge several colleagues who have allowed us to
 interface, adapt or use parts of their codes:
   Stefan Grimme, W. Hujo, H. Kruse, P. Pracht,  : VdW corrections, initial TS optimization,
                  C. Bannwarth, S. Ehlert          DFT functionals, gCP, sTDA/sTD-DF
   Ed Valeev, F. Pavosevic, A. Kumar             : LibInt (2-el integral package), F12 methods
   Garnet Chan, S. Sharma, J. Yang, R. Olivares  : DMRG
   Ulf Ekstrom                                   : XCFun DFT Library
   Mihaly Kallay                                 : mrcc  (arbitrary order and MRCC methods)
   Jiri Pittner, Ondrej Demel                    : Mk-CCSD
   Frank Weinhold                                : gennbo (NPA and NBO analysis)
   Christopher J. Cramer and Donald G. Truhlar   : smd solvation model
   Lars Goerigk                                  : TD-DFT with DH, B97 family of functionals
   V. Asgeirsson, H. Jonsson                     : NEB implementation
   FAccTs GmbH                                   : IRC, NEB, NEB-TS, DLPNO-Multilevel, CI-OPT
                                                   MM, QMMM, 2- and 3-layer-ONIOM, Crystal-QMMM,
                                                   LR-CPCM, SF, NACMEs, symmetry and pop. for TD-DFT,
                                                   nearIR, NL-DFT gradient (VV10), updates on ESD,
                                                   ML-optimized integration grids
   S Lehtola, MJT Oliveira, MAL Marques          : LibXC Library
   Liviu Ungur et al                             : ANISO software


 Your calculation uses the libint2 library for the computation of 2-el integrals
 For citations please refer to: http://libint.valeyev.net

 Your ORCA version has been built with support for libXC version: 5.1.0
 For citations please refer to: https://tddft.org/programs/libxc/

 This ORCA versions uses:
   CBLAS   interface :  Fast vector & matrix operations
   LAPACKE interface :  Fast linear algebra routines
   SCALAPACK package :  Parallel linear algebra routines
   Shared memory     :  Shared parallel matrices
   BLAS/LAPACK       :  OpenBLAS 0.3.15  USE64BITINT DYNAMIC_ARCH NO_AFFINITY SkylakeX SINGLE_THREADED
        Core in use  :  SkylakeX
   Copyright (c) 2011-2014, The OpenBLAS Project




***************************************
The coordinates will be read from file: S0_XTB.xyz
***************************************


Your calculation utilizes the atom-pairwise dispersion correction
with the Becke-Johnson damping scheme (D3BJ)
Cite in your paper:
S.Grimme, S.Ehrlich, L.Goerigk, J Comput Chem, (2011), 32, 1456–1465 
S.Grimme, J.Antony, S.Ehrlich and H.Krieg, J.Chem.Phys., 132, (2010), 154104 
   

================================================================================

----- Orbital basis set information -----
Your calculation utilizes the basis: def2-SVP
   F. Weigend and R. Ahlrichs, Phys. Chem. Chem. Phys. 7, 3297 (2005).

----- AuxJ basis set information -----
Your calculation utilizes the auxiliary basis: def2/J
   F. Weigend, Phys. Chem. Chem. Phys. 8, 1057 (2006).

================================================================================
                                        WARNINGS
                       Please study these warnings very carefully!
================================================================================


INFO   : the flag for use of the SHARK integral package has been found!

================================================================================
                                       INPUT FILE
================================================================================
NAME = /dev/shm/slurm.malcolms.9695294/9695294/freq/FREQ_OPT.inp
|  1> ! PBE0 def2-SVP D3BJ def2/J RIJCOSX tightSCF noautostart miniprint nopop defgrid3 Opt Freq
|  2> %maxcore    4000
|  3> %pal    nprocs  40  end
|  4> * xyzfile 0 1 S0_XTB.xyz
|  5> 
|  6> 
|  7>                          ****END OF INPUT****
================================================================================

                       *****************************
                       * Geometry Optimization Run *
                       *****************************

Geometry optimization settings:
Update method            Update   .... BFGS
Choice of coordinates    CoordSys .... Z-matrix Internals
Initial Hessian          InHess   .... Almoef's Model

Convergence Tolerances:
Energy Change            TolE     ....  5.0000e-06 Eh
Max. Gradient            TolMAXG  ....  3.0000e-04 Eh/bohr
RMS Gradient             TolRMSG  ....  1.0000e-04 Eh/bohr
Max. Displacement        TolMAXD  ....  4.0000e-03 bohr
RMS Displacement         TolRMSD  ....  2.0000e-03 bohr
Strict Convergence                ....  False
------------------------------------------------------------------------------
                        ORCA OPTIMIZATION COORDINATE SETUP
------------------------------------------------------------------------------

The optimization will be done in new redundant internal coordinates
Making redundant internal coordinates   ...  (new redundants) done
Evaluating the initial hessian          ...  (Almloef) done
Evaluating the coordinates              ...  done
Calculating the B-matrix                .... done
Calculating the G-matrix                .... done
Diagonalizing the G-matrix              .... done
Small eigenvalue found = 1.796e-04
Small eigenvalue found = 5.796e-04
Small eigenvalue found = 1.170e-03
Small eigenvalue found = 1.762e-03
Small eigenvalue found = 3.334e-03
Small eigenvalue found = 4.158e-03
Small eigenvalue found = 4.455e-03
Small eigenvalue found = 1.129e-02
Small eigenvalue found = 1.275e-02
Small eigenvalue found = 1.658e-02
Small eigenvalue found = 1.852e-02
Small eigenvalue found = 2.873e-02
The first mode is                       ....  226
The number of degrees of freedom        ....  234

    -----------------------------------------------------------------
                    Redundant Internal Coordinates


    -----------------------------------------------------------------
         Definition                    Initial Value    Approx d2E/dq
    -----------------------------------------------------------------
      1. B(C   1,C   0)                  1.3456         0.735489   
      2. B(C   2,C   1)                  1.4374         0.524948   
      3. B(C   3,C   2)                  1.3909         0.622795   
      4. B(N   4,C   3)                  1.3256         0.709056   
      5. B(C   5,N   4)                  1.3245         0.711919   
      6. B(C   6,C   5)                  1.4353         0.528953   
      7. B(C   7,C   6)                  1.3467         0.732532   
      8. B(C   8,C   7)                  1.4436         0.513186   
      9. B(C   9,C   8)                  1.4001         0.602084   
     10. B(C  10,C   9)                  1.3770         0.655291   
     11. B(C  11,C  10)                  1.3950         0.613519   
     12. B(N  12,C  11)                  1.3972         0.544908   
     13. B(C  13,N  12)                  1.3823         0.575584   
     14. B(C  14,C  13)                  1.3875         0.630648   
     15. B(C  15,C  14)                  1.3819         0.643587   
     16. B(C  16,C  15)                  1.3929         0.618144   
     17. B(C  17,C  16)                  1.3806         0.646768   
     18. B(C  18,C  17)                  1.3884         0.628445   
     19. B(C  18,C  13)                  1.4136         0.572967   
     20. B(C  19,C  18)                  1.4365         0.526780   
     21. B(C  20,C  19)                  1.3884         0.628378   
     22. B(C  21,C  20)                  1.3806         0.646784   
     23. B(C  22,C  21)                  1.3929         0.618119   
     24. B(C  23,C  22)                  1.3819         0.643633   
     25. B(C  24,C  23)                  1.3875         0.630617   
     26. B(C  24,C  19)                  1.4135         0.573112   
     27. B(C  24,N  12)                  1.3824         0.575384   
     28. B(C  25,C  11)                  1.3942         0.615183   
     29. B(C  26,C  25)                  1.3772         0.654777   
     30. B(C  26,C   8)                  1.4007         0.600609   
     31. B(C  27,C   5)                  1.4265         0.546463   
     32. B(N  28,C  27)                  1.3317         0.693226   
     33. B(S  29,N  28)                  1.6100         0.672476   
     34. B(N  30,S  29)                  1.6063         0.681686   
     35. B(C  31,N  30)                  1.3326         0.690946   
     36. B(C  31,C  27)                  1.4375         0.524748   
     37. B(C  31,C   2)                  1.4191         0.561442   
     38. B(C  32,C   0)                  1.4450         0.510429   
     39. B(C  33,C  32)                  1.4004         0.601462   
     40. B(C  34,C  33)                  1.3774         0.654398   
     41. B(C  35,C  34)                  1.3937         0.616388   
     42. B(N  36,C  35)                  1.3979         0.543579   
     43. B(C  37,N  36)                  1.3820         0.576210   
     44. B(C  38,C  37)                  1.3875         0.630567   
     45. B(C  39,C  38)                  1.3819         0.643752   
     46. B(C  40,C  39)                  1.3930         0.618011   
     47. B(C  41,C  40)                  1.3805         0.646878   
     48. B(C  42,C  41)                  1.3885         0.628327   
     49. B(C  42,C  37)                  1.4137         0.572800   
     50. B(C  43,C  42)                  1.4363         0.527010   
     51. B(C  44,C  43)                  1.3885         0.628299   
     52. B(C  45,C  44)                  1.3805         0.646877   
     53. B(C  46,C  45)                  1.3930         0.617996   
     54. B(C  47,C  46)                  1.3819         0.643772   
     55. B(C  48,C  47)                  1.3875         0.630544   
     56. B(C  48,C  43)                  1.4136         0.572882   
     57. B(C  48,N  36)                  1.3820         0.576199   
     58. B(C  49,C  35)                  1.3945         0.614470   
     59. B(C  50,C  49)                  1.3772         0.654934   
     60. B(C  50,C  32)                  1.3997         0.602830   
     61. B(H  51,C   0)                  1.0822         0.370553   
     62. B(H  52,C   1)                  1.0809         0.372287   
     63. B(H  53,C   3)                  1.0814         0.371671   
     64. B(H  54,C   6)                  1.0804         0.373001   
     65. B(H  55,C   7)                  1.0819         0.370934   
     66. B(H  56,C   9)                  1.0785         0.375627   
     67. B(H  57,C  10)                  1.0799         0.373743   
     68. B(H  58,C  14)                  1.0795         0.374253   
     69. B(H  59,C  15)                  1.0801         0.373495   
     70. B(H  60,C  16)                  1.0798         0.373809   
     71. B(H  61,C  17)                  1.0795         0.374195   
     72. B(H  62,C  20)                  1.0795         0.374197   
     73. B(H  63,C  21)                  1.0798         0.373816   
     74. B(H  64,C  22)                  1.0800         0.373520   
     75. B(H  65,C  23)                  1.0795         0.374262   
     76. B(H  66,C  25)                  1.0798         0.373857   
     77. B(H  67,C  26)                  1.0805         0.372914   
     78. B(H  68,C  33)                  1.0808         0.372505   
     79. B(H  69,C  34)                  1.0798         0.373875   
     80. B(H  70,C  38)                  1.0795         0.374200   
     81. B(H  71,C  39)                  1.0801         0.373469   
     82. B(H  72,C  40)                  1.0798         0.373790   
     83. B(H  73,C  41)                  1.0796         0.374168   
     84. B(H  74,C  44)                  1.0796         0.374172   
     85. B(H  75,C  45)                  1.0798         0.373789   
     86. B(H  76,C  46)                  1.0801         0.373476   
     87. B(H  77,C  47)                  1.0795         0.374213   
     88. B(H  78,C  49)                  1.0799         0.373744   
     89. B(H  79,C  50)                  1.0786         0.375553   
     90. A(C  32,C   0,H  51)          114.6063         0.343186   
     91. A(C   1,C   0,H  51)          119.1282         0.365094   
     92. A(C   1,C   0,C  32)          126.2654         0.432224   
     93. A(C   0,C   1,C   2)          125.8798         0.434410   
     94. A(C   2,C   1,H  52)          113.5580         0.345075   
     95. A(C   0,C   1,H  52)          120.5622         0.365386   
     96. A(C   3,C   2,C  31)          114.0964         0.426748   
     97. A(C   1,C   2,C   3)          126.3640         0.421649   
     98. A(C   1,C   2,C  31)          119.5395         0.413931   
     99. A(N   4,C   3,H  53)          113.8178         0.360749   
    100. A(C   2,C   3,H  53)          120.3574         0.355076   
    101. A(C   2,C   3,N   4)          125.8248         0.442142   
    102. A(C   3,N   4,C   5)          122.1115         0.450000   
    103. A(N   4,C   5,C   6)          116.3734         0.429637   
    104. A(C   6,C   5,C  27)          124.8963         0.412505   
    105. A(N   4,C   5,C  27)          118.7301         0.432157   
    106. A(C   7,C   6,H  54)          121.9024         0.365254   
    107. A(C   5,C   6,H  54)          113.2129         0.345627   
    108. A(C   5,C   6,C   7)          124.8846         0.434689   
    109. A(C   8,C   7,H  55)          115.5416         0.343555   
    110. A(C   6,C   7,C   8)          126.4232         0.432329   
    111. A(C   6,C   7,H  55)          118.0349         0.364907   
    112. A(C   9,C   8,C  26)          117.7765         0.429327   
    113. A(C   7,C   8,C   9)          123.4920         0.417423   
    114. A(C   7,C   8,C  26)          118.7315         0.417241   
    115. A(C  10,C   9,H  56)          119.0417         0.358802   
    116. A(C   8,C   9,C  10)          121.0813         0.436105   
    117. A(C   8,C   9,H  56)          119.8735         0.353680   
    118. A(C   9,C  10,C  11)          120.4542         0.437587   
    119. A(C  11,C  10,H  57)          119.3011         0.354507   
    120. A(C   9,C  10,H  57)          120.2332         0.358495   
    121. A(C  10,C  11,N  12)          120.3650         0.420582   
    122. A(N  12,C  11,C  25)          120.4758         0.420785   
    123. A(C  10,C  11,C  25)          119.1592         0.432639   
    124. A(C  13,N  12,C  24)          108.3197         0.417154   
    125. A(C  11,N  12,C  24)          125.7923         0.413111   
    126. A(C  11,N  12,C  13)          125.8880         0.413137   
    127. A(N  12,C  13,C  14)          129.6136         0.426817   
    128. A(C  14,C  13,C  18)          121.0174         0.429268   
    129. A(N  12,C  13,C  18)          109.2986         0.419561   
    130. A(C  13,C  14,H  58)          121.3166         0.356250   
    131. A(C  15,C  14,H  58)          120.8416         0.357481   
    132. A(C  13,C  14,C  15)          117.8365         0.438338   
    133. A(C  16,C  15,H  59)          119.2748         0.354919   
    134. A(C  14,C  15,H  59)          119.2151         0.357358   
    135. A(C  14,C  15,C  16)          121.5095         0.436758   
    136. A(C  15,C  16,H  60)          119.2598         0.354970   
    137. A(C  15,C  16,C  17)          120.9141         0.437147   
    138. A(C  17,C  16,H  60)          119.8229         0.357709   
    139. A(C  18,C  17,H  61)          120.4005         0.356029   
    140. A(C  16,C  17,H  61)          120.9769         0.357771   
    141. A(C  16,C  17,C  18)          118.6218         0.438452   
    142. A(C  17,C  18,C  19)          133.3833         0.422592   
    143. A(C  13,C  18,C  19)          106.5412         0.415686   
    144. A(C  13,C  18,C  17)          120.0712         0.428999   
    145. A(C  18,C  19,C  20)          133.3901         0.422584   
    146. A(C  20,C  19,C  24)          120.0681         0.429010   
    147. A(C  18,C  19,C  24)          106.5375         0.415705   
    148. A(C  21,C  20,H  62)          120.9764         0.357773   
    149. A(C  19,C  20,H  62)          120.4025         0.356023   
    150. A(C  19,C  20,C  21)          118.6203         0.438445   
    151. A(C  20,C  21,C  22)          120.9163         0.437145   
    152. A(C  22,C  21,H  63)          119.2575         0.354968   
    153. A(C  20,C  21,H  63)          119.8229         0.357711   
    154. A(C  21,C  22,H  64)          119.2796         0.354921   
    155. A(C  21,C  22,C  23)          121.5087         0.436761   
    156. A(C  23,C  22,H  64)          119.2112         0.357366   
    157. A(C  22,C  23,H  65)          120.8412         0.357487   
    158. A(C  22,C  23,C  24)          117.8328         0.438340   
    159. A(C  24,C  23,H  65)          121.3209         0.356248   
    160. A(C  19,C  24,C  23)          121.0237         0.429284   
    161. A(N  12,C  24,C  19)          109.3016         0.419554   
    162. A(N  12,C  24,C  23)          129.6031         0.426786   
    163. A(C  11,C  25,H  66)          119.4790         0.354689   
    164. A(C  11,C  25,C  26)          120.0847         0.437739   
    165. A(C  26,C  25,H  66)          120.4244         0.358466   
    166. A(C   8,C  26,H  67)          119.0385         0.353100   
    167. A(C   8,C  26,C  25)          121.4429         0.435851   
    168. A(C  25,C  26,H  67)          119.5149         0.358312   
    169. A(N  28,C  27,C  31)          111.7854         0.426980   
    170. A(C   5,C  27,C  31)          118.6878         0.411921   
    171. A(C   5,C  27,N  28)          129.5268         0.430096   
    172. A(C  27,N  28,S  29)          108.9233         0.468919   
    173. A(N  28,S  29,N  30)           98.3620         0.494553   
    174. A(S  29,N  30,C  31)          108.7878         0.469807   
    175. A(C  27,C  31,N  30)          112.1416         0.426728   
    176. A(C   2,C  31,N  30)          127.3093         0.431935   
    177. A(C   2,C  31,C  27)          120.5491         0.413903   
    178. A(C   0,C  32,C  33)          118.8189         0.416946   
    179. A(C  33,C  32,C  50)          117.7071         0.429532   
    180. A(C   0,C  32,C  50)          123.4738         0.417115   
    181. A(C  32,C  33,H  68)          119.1781         0.353119   
    182. A(C  32,C  33,C  34)          121.4966         0.435917   
    183. A(C  34,C  33,H  68)          119.3224         0.358210   
    184. A(C  33,C  34,H  69)          120.3840         0.358434   
    185. A(C  33,C  34,C  35)          120.0841         0.437847   
    186. A(C  35,C  34,H  69)          119.5219         0.354809   
    187. A(C  34,C  35,N  36)          120.4742         0.420749   
    188. A(N  36,C  35,C  49)          120.3997         0.420515   
    189. A(C  34,C  35,C  49)          119.1261         0.432912   
    190. A(C  35,N  36,C  37)          125.8516         0.413037   
    191. A(C  37,N  36,C  48)          108.3295         0.417340   
    192. A(C  35,N  36,C  48)          125.8188         0.413036   
    193. A(N  36,C  37,C  38)          129.6107         0.426890   
    194. A(N  36,C  37,C  42)          109.3013         0.419621   
    195. A(C  38,C  37,C  42)          121.0209         0.429236   
    196. A(C  39,C  38,H  70)          120.8503         0.357488   
    197. A(C  37,C  38,H  70)          121.3050         0.356233   
    198. A(C  37,C  38,C  39)          117.8396         0.438349   
    199. A(C  38,C  39,C  40)          121.5056         0.436762   
    200. A(C  40,C  39,H  71)          119.2744         0.354902   
    201. A(C  38,C  39,H  71)          119.2195         0.357369   
    202. A(C  39,C  40,C  41)          120.9173         0.437143   
    203. A(C  41,C  40,H  72)          119.8253         0.357716   
    204. A(C  39,C  40,H  72)          119.2542         0.354954   
    205. A(C  42,C  41,H  73)          120.3979         0.356013   
    206. A(C  40,C  41,H  73)          120.9747         0.357777   
    207. A(C  40,C  41,C  42)          118.6266         0.438450   
    208. A(C  41,C  42,C  43)          133.4020         0.422611   
    209. A(C  37,C  42,C  43)          106.5327         0.415697   
    210. A(C  37,C  42,C  41)          120.0613         0.428962   
    211. A(C  44,C  43,C  48)          120.0587         0.428969   
    212. A(C  42,C  43,C  48)          106.5313         0.415708   
    213. A(C  42,C  43,C  44)          133.4060         0.422607   
    214. A(C  43,C  44,C  45)          118.6240         0.438446   
    215. A(C  45,C  44,H  74)          120.9757         0.357778   
    216. A(C  43,C  44,H  74)          120.3996         0.356011   
    217. A(C  44,C  45,C  46)          120.9198         0.437141   
    218. A(C  46,C  45,H  75)          119.2541         0.354952   
    219. A(C  44,C  45,H  75)          119.8230         0.357716   
    220. A(C  45,C  46,C  47)          121.5070         0.436762   
    221. A(C  47,C  46,H  76)          119.2163         0.357372   
    222. A(C  45,C  46,H  76)          119.2761         0.354902   
    223. A(C  46,C  47,C  48)          117.8327         0.438348   
    224. A(C  48,C  47,H  77)          121.3057         0.356233   
    225. A(C  46,C  47,H  77)          120.8566         0.357492   
    226. A(C  43,C  48,C  47)          121.0287         0.429244   
    227. A(N  36,C  48,C  47)          129.5997         0.426886   
    228. A(N  36,C  48,C  43)          109.3040         0.419630   
    229. A(C  35,C  49,C  50)          120.4769         0.437666   
    230. A(C  50,C  49,H  78)          120.1926         0.358462   
    231. A(C  35,C  49,H  78)          119.3193         0.354601   
    232. A(C  32,C  50,C  49)          121.1080         0.436160   
    233. A(C  49,C  50,H  79)          118.9296         0.358757   
    234. A(C  32,C  50,H  79)          119.9584         0.353743   
    235. D(C   2,C   1,C   0,H  51)     -0.2526         0.038435   
    236. D(C   2,C   1,C   0,C  32)    179.7938         0.038435   
    237. D(H  52,C   1,C   0,C  32)     -0.1534         0.038435   
    238. D(H  52,C   1,C   0,H  51)    179.8002         0.038435   
    239. D(C   3,C   2,C   1,C   0)     -0.0305         0.018801   
    240. D(C   3,C   2,C   1,H  52)    179.9200         0.018801   
    241. D(C  31,C   2,C   1,C   0)   -179.9252         0.018801   
    242. D(C  31,C   2,C   1,H  52)      0.0253         0.018801   
    243. D(N   4,C   3,C   2,C  31)      0.1420         0.026855   
    244. D(H  53,C   3,C   2,C  31)   -179.9162         0.026855   
    245. D(N   4,C   3,C   2,C   1)   -179.7576         0.026855   
    246. D(H  53,C   3,C   2,C   1)      0.1842         0.026855   
    247. D(C   5,N   4,C   3,C   2)     -0.0584         0.037744   
    248. D(C   5,N   4,C   3,H  53)    179.9965         0.037744   
    249. D(C   6,C   5,N   4,C   3)    179.8045         0.038080   
    250. D(C  27,C   5,N   4,C   3)     -0.0855         0.038080   
    251. D(H  54,C   6,C   5,N   4)     -0.0915         0.019096   
    252. D(H  54,C   6,C   5,C  27)    179.7908         0.019096   
    253. D(C   7,C   6,C   5,N   4)   -179.9700         0.019096   
    254. D(C   7,C   6,C   5,C  27)     -0.0876         0.019096   
    255. D(H  55,C   7,C   6,H  54)   -179.8703         0.038098   
    256. D(H  55,C   7,C   6,C   5)     -0.0019         0.038098   
    257. D(C   8,C   7,C   6,C   5)    179.7739         0.038098   
    258. D(C   8,C   7,C   6,H  54)     -0.0945         0.038098   
    259. D(C   9,C   8,C   7,C   6)      1.3310         0.017952   
    260. D(C  26,C   8,C   7,H  55)      1.1460         0.017952   
    261. D(C   9,C   8,C   7,H  55)   -178.8884         0.017952   
    262. D(C  26,C   8,C   7,C   6)   -178.6346         0.017952   
    263. D(H  56,C   9,C   8,C   7)      0.7866         0.025000   
    264. D(C  10,C   9,C   8,C  26)      0.0534         0.025000   
    265. D(C  10,C   9,C   8,C   7)   -179.9125         0.025000   
    266. D(H  56,C   9,C   8,C  26)   -179.2474         0.025000   
    267. D(H  57,C  10,C   9,H  56)      0.7869         0.029933   
    268. D(C  11,C  10,C   9,H  56)    179.5459         0.029933   
    269. D(C  11,C  10,C   9,C   8)      0.2393         0.029933   
    270. D(H  57,C  10,C   9,C   8)   -178.5196         0.029933   
    271. D(C  25,C  11,C  10,H  57)    178.5046         0.026014   
    272. D(N  12,C  11,C  10,H  57)     -1.5000         0.026014   
    273. D(N  12,C  11,C  10,C   9)    179.7296         0.026014   
    274. D(C  25,C  11,C  10,C   9)     -0.2659         0.026014   
    275. D(C  13,N  12,C  11,C  25)    -49.0073         0.023643   
    276. D(C  24,N  12,C  11,C  25)    131.0318         0.023643   
    277. D(C  13,N  12,C  11,C  10)    130.9973         0.023643   
    278. D(C  24,N  12,C  11,C  10)    -48.9636         0.023643   
    279. D(C  18,C  13,N  12,C  24)      0.1307         0.026546   
    280. D(C  14,C  13,N  12,C  24)    177.0479         0.026546   
    281. D(C  14,C  13,N  12,C  11)     -2.9187         0.026546   
    282. D(C  18,C  13,N  12,C  11)   -179.8359         0.026546   
    283. D(H  58,C  14,C  13,C  18)    177.3932         0.027580   
    284. D(C  15,C  14,C  13,C  18)     -1.7803         0.027580   
    285. D(C  15,C  14,C  13,N  12)   -178.3850         0.027580   
    286. D(H  58,C  14,C  13,N  12)      0.7885         0.027580   
    287. D(H  59,C  15,C  14,H  58)      1.0314         0.028800   
    288. D(H  59,C  15,C  14,C  13)   -179.7910         0.028800   
    289. D(C  16,C  15,C  14,H  58)   -178.7010         0.028800   
    290. D(C  16,C  15,C  14,C  13)      0.4766         0.028800   
    291. D(H  60,C  16,C  15,H  59)      0.4508         0.026431   
    292. D(H  60,C  16,C  15,C  14)   -179.8170         0.026431   
    293. D(C  17,C  16,C  15,H  59)   -178.8884         0.026431   
    294. D(C  17,C  16,C  15,C  14)      0.8438         0.026431   
    295. D(H  61,C  17,C  16,C  15)    178.8434         0.029105   
    296. D(C  18,C  17,C  16,H  60)    179.8324         0.029105   
    297. D(C  18,C  17,C  16,C  15)     -0.8321         0.029105   
    298. D(H  61,C  17,C  16,H  60)     -0.4921         0.029105   
    299. D(C  19,C  18,C  17,H  61)     -0.9993         0.027375   
    300. D(C  19,C  18,C  17,C  16)    178.6781         0.027375   
    301. D(C  13,C  18,C  17,H  61)    179.8592         0.027375   
    302. D(C  13,C  18,C  17,C  16)     -0.4634         0.027375   
    303. D(C  19,C  18,C  13,C  14)   -177.5414         0.022530   
    304. D(C  17,C  18,C  13,C  14)      1.8077         0.022530   
    305. D(C  19,C  18,C  13,N  12)     -0.3122         0.022530   
    306. D(C  17,C  18,C  13,N  12)    179.0369         0.022530   
    307. D(C  24,C  19,C  18,C  17)   -178.8565         0.018936   
    308. D(C  24,C  19,C  18,C  13)      0.3685         0.018936   
    309. D(C  20,C  19,C  18,C  17)      1.9285         0.018936   
    310. D(C  20,C  19,C  18,C  13)   -178.8465         0.018936   
    311. D(H  62,C  20,C  19,C  24)    179.8427         0.027369   
    312. D(H  62,C  20,C  19,C  18)     -1.0268         0.027369   
    313. D(C  21,C  20,C  19,C  24)     -0.4787         0.027369   
    314. D(C  21,C  20,C  19,C  18)    178.6518         0.027369   
    315. D(H  63,C  21,C  20,H  62)     -0.4929         0.029107   
    316. D(H  63,C  21,C  20,C  19)    179.8304         0.029107   
    317. D(C  22,C  21,C  20,H  62)    178.8396         0.029107   
    318. D(C  22,C  21,C  20,C  19)     -0.8370         0.029107   
    319. D(H  64,C  22,C  21,H  63)      0.4586         0.026428   
    320. D(H  64,C  22,C  21,C  20)   -178.8777         0.026428   
    321. D(C  23,C  22,C  21,H  63)   -179.8076         0.026428   
    322. D(C  23,C  22,C  21,C  20)      0.8561         0.026428   
    323. D(H  65,C  23,C  22,H  64)      1.0250         0.028805   
    324. D(C  24,C  23,C  22,H  64)   -179.7883         0.028805   
    325. D(C  24,C  23,C  22,C  21)      0.4778         0.028805   
    326. D(H  65,C  23,C  22,C  21)   -178.7089         0.028805   
    327. D(C  19,C  24,C  23,H  65)    177.3805         0.027577   
    328. D(N  12,C  24,C  23,H  65)      0.8053         0.027577   
    329. D(N  12,C  24,C  23,C  22)   -178.3773         0.027577   
    330. D(C  23,C  24,C  19,C  20)      1.8371         0.022542   
    331. D(C  23,C  24,C  19,C  18)   -177.5038         0.022542   
    332. D(N  12,C  24,C  19,C  20)    179.0418         0.022542   
    333. D(N  12,C  24,C  19,C  18)     -0.2991         0.022542   
    334. D(C  23,C  24,N  12,C  13)    176.9999         0.026526   
    335. D(C  23,C  24,N  12,C  11)     -3.0335         0.026526   
    336. D(C  19,C  24,C  23,C  22)     -1.8021         0.027577   
    337. D(C  19,C  24,N  12,C  13)      0.1092         0.026526   
    338. D(C  19,C  24,N  12,C  11)   -179.9241         0.026526   
    339. D(H  66,C  25,C  11,N  12)     -1.2486         0.026163   
    340. D(C  26,C  25,C  11,C  10)     -0.0014         0.026163   
    341. D(C  26,C  25,C  11,N  12)   -179.9969         0.026163   
    342. D(H  66,C  25,C  11,C  10)    178.7468         0.026163   
    343. D(H  67,C  26,C  25,H  66)      0.8609         0.029882   
    344. D(H  67,C  26,C  25,C  11)    179.5972         0.029882   
    345. D(C   8,C  26,C  25,H  66)   -178.4356         0.029882   
    346. D(C   8,C  26,C  25,C  11)      0.3007         0.029882   
    347. D(H  67,C  26,C   8,C   9)   -179.6243         0.024871   
    348. D(H  67,C  26,C   8,C   7)      0.3433         0.024871   
    349. D(C  25,C  26,C   8,C   9)     -0.3245         0.024871   
    350. D(C  25,C  26,C   8,C   7)    179.6431         0.024871   
    351. D(C  31,C  27,C   5,C   6)   -179.7497         0.020420   
    352. D(C  31,C  27,C   5,N   4)      0.1301         0.020420   
    353. D(N  28,C  27,C   5,C   6)      0.2019         0.020420   
    354. D(N  28,C  27,C   5,N   4)   -179.9183         0.020420   
    355. D(S  29,N  28,C  27,C  31)      0.0027         0.035921   
    356. D(S  29,N  28,C  27,C   5)   -179.9517         0.035921   
    357. D(N  30,S  29,N  28,C  27)      0.0023         0.008528   
    358. D(C  31,N  30,S  29,N  28)     -0.0068         0.008736   
    359. D(N  30,C  31,C   2,C   1)     -0.1704         0.021596   
    360. D(C  27,C  31,C   2,C   3)     -0.0851         0.021596   
    361. D(C  27,C  31,C   2,C   1)    179.8220         0.021596   
    362. D(C  27,C  31,N  30,S  29)      0.0091         0.035663   
    363. D(C   2,C  31,N  30,S  29)   -179.9980         0.035663   
    364. D(N  30,C  31,C  27,N  28)     -0.0078         0.018786   
    365. D(N  30,C  31,C  27,C   5)    179.9520         0.018786   
    366. D(C   2,C  31,C  27,N  28)    179.9987         0.018786   
    367. D(C   2,C  31,C  27,C   5)     -0.0414         0.018786   
    368. D(N  30,C  31,C   2,C   3)    179.9225         0.021596   
    369. D(C  50,C  32,C   0,H  51)    178.7764         0.017756   
    370. D(C  50,C  32,C   0,C   1)     -1.2682         0.017756   
    371. D(C  33,C  32,C   0,H  51)     -1.0809         0.017756   
    372. D(C  33,C  32,C   0,C   1)    178.8745         0.017756   
    373. D(H  68,C  33,C  32,C  50)    179.5863         0.024945   
    374. D(H  68,C  33,C  32,C   0)     -0.5482         0.024945   
    375. D(C  34,C  33,C  32,C  50)      0.2223         0.024945   
    376. D(C  34,C  33,C  32,C   0)   -179.9122         0.024945   
    377. D(H  69,C  34,C  33,H  68)     -0.8499         0.029845   
    378. D(H  69,C  34,C  33,C  32)    178.5133         0.029845   
    379. D(C  35,C  34,C  33,H  68)   -179.6986         0.029845   
    380. D(C  35,C  34,C  33,C  32)     -0.3354         0.029845   
    381. D(C  49,C  35,C  34,H  69)   -178.7238         0.026272   
    382. D(C  49,C  35,C  34,C  33)      0.1349         0.026272   
    383. D(N  36,C  35,C  34,H  69)      1.3293         0.026272   
    384. D(N  36,C  35,C  34,C  33)   -179.8121         0.026272   
    385. D(C  48,N  36,C  35,C  49)     49.2165         0.023522   
    386. D(C  48,N  36,C  35,C  34)   -130.8372         0.023522   
    387. D(C  37,N  36,C  35,C  49)   -130.6739         0.023522   
    388. D(C  37,N  36,C  35,C  34)     49.2724         0.023522   
    389. D(C  42,C  37,N  36,C  48)     -0.1109         0.026607   
    390. D(C  42,C  37,N  36,C  35)    179.7955         0.026607   
    391. D(C  38,C  37,N  36,C  48)   -177.1031         0.026607   
    392. D(C  38,C  37,N  36,C  35)      2.8032         0.026607   
    393. D(H  70,C  38,C  37,C  42)   -177.4358         0.027572   
    394. D(H  70,C  38,C  37,N  36)     -0.7486         0.027572   
    395. D(C  39,C  38,C  37,C  42)      1.7539         0.027572   
    396. D(C  39,C  38,C  37,N  36)    178.4411         0.027572   
    397. D(H  71,C  39,C  38,H  70)     -1.0141         0.028816   
    398. D(H  71,C  39,C  38,C  37)    179.7923         0.028816   
    399. D(C  40,C  39,C  38,H  70)    178.7280         0.028816   
    400. D(C  40,C  39,C  38,C  37)     -0.4655         0.028816   
    401. D(H  72,C  40,C  39,H  71)     -0.4463         0.026419   
    402. D(H  72,C  40,C  39,C  38)    179.8117         0.026419   
    403. D(C  41,C  40,C  39,H  71)    178.9069         0.026419   
    404. D(C  41,C  40,C  39,C  38)     -0.8351         0.026419   
    405. D(H  73,C  41,C  40,H  72)      0.4841         0.029116   
    406. D(H  73,C  41,C  40,C  39)   -178.8655         0.029116   
    407. D(C  42,C  41,C  40,H  72)   -179.8311         0.029116   
    408. D(C  42,C  41,C  40,C  39)      0.8193         0.029116   
    409. D(C  43,C  42,C  41,H  73)      0.9850         0.027364   
    410. D(C  43,C  42,C  41,C  40)   -178.7017         0.027364   
    411. D(C  37,C  42,C  41,H  73)   -179.8525         0.027364   
    412. D(C  37,C  42,C  41,C  40)      0.4609         0.027364   
    413. D(C  43,C  42,C  37,C  38)    177.5803         0.022516   
    414. D(C  43,C  42,C  37,N  36)      0.2839         0.022516   
    415. D(C  41,C  42,C  37,C  38)     -1.7850         0.022516   
    416. D(C  41,C  42,C  37,N  36)   -179.0814         0.022516   
    417. D(C  48,C  43,C  42,C  41)    178.9013         0.018953   
    418. D(C  48,C  43,C  42,C  37)     -0.3427         0.018953   
    419. D(C  44,C  43,C  42,C  41)     -1.8498         0.018953   
    420. D(C  44,C  43,C  42,C  37)    178.9063         0.018953   
    421. D(H  74,C  44,C  43,C  48)   -179.8365         0.027361   
    422. D(H  74,C  44,C  43,C  42)      0.9954         0.027361   
    423. D(C  45,C  44,C  43,C  48)      0.4722         0.027361   
    424. D(C  45,C  44,C  43,C  42)   -178.6960         0.027361   
    425. D(H  75,C  45,C  44,H  74)      0.4794         0.029116   
    426. D(H  75,C  45,C  44,C  43)   -179.8311         0.029116   
    427. D(C  46,C  45,C  44,H  74)   -178.8702         0.029116   
    428. D(C  46,C  45,C  44,C  43)      0.8193         0.029116   
    429. D(H  76,C  46,C  45,H  75)     -0.4560         0.026417   
    430. D(H  76,C  46,C  45,C  44)    178.8972         0.026417   
    431. D(C  47,C  46,C  45,H  75)    179.8054         0.026417   
    432. D(C  47,C  46,C  45,C  44)     -0.8413         0.026417   
    433. D(H  77,C  47,C  46,H  76)     -0.9999         0.028818   
    434. D(H  77,C  47,C  46,C  45)    178.7387         0.028818   
    435. D(C  48,C  47,C  46,H  76)    179.7965         0.028818   
    436. D(C  48,C  47,C  46,C  45)     -0.4648         0.028818   
    437. D(C  43,C  48,C  47,H  77)   -177.4349         0.027570   
    438. D(C  43,C  48,C  47,C  46)      1.7648         0.027570   
    439. D(N  36,C  48,C  47,H  77)     -0.7639         0.027570   
    440. D(N  36,C  48,C  47,C  46)    178.4358         0.027570   
    441. D(C  47,C  48,C  43,C  44)     -1.8023         0.022523   
    442. D(C  47,C  48,C  43,C  42)    177.5673         0.022523   
    443. D(N  36,C  48,C  43,C  44)   -179.0849         0.022523   
    444. D(N  36,C  48,C  43,C  42)      0.2847         0.022523   
    445. D(C  47,C  48,N  36,C  37)   -177.0899         0.026606   
    446. D(C  47,C  48,N  36,C  35)      3.0037         0.026606   
    447. D(C  43,C  48,N  36,C  37)     -0.1122         0.026606   
    448. D(C  43,C  48,N  36,C  35)    179.9814         0.026606   
    449. D(H  78,C  49,C  35,N  36)      1.3308         0.026099   
    450. D(H  78,C  49,C  35,C  34)   -178.6162         0.026099   
    451. D(C  50,C  49,C  35,N  36)   -179.8813         0.026099   
    452. D(C  50,C  49,C  35,C  34)      0.1717         0.026099   
    453. D(H  79,C  50,C  49,H  78)     -0.7857         0.029898   
    454. D(H  79,C  50,C  49,C  35)   -179.5630         0.029898   
    455. D(C  32,C  50,C  49,H  78)    178.4923         0.029898   
    456. D(C  32,C  50,C  49,C  35)     -0.2850         0.029898   
    457. D(H  79,C  50,C  32,C  33)    179.3594         0.025065   
    458. D(H  79,C  50,C  32,C   0)     -0.4993         0.025065   
    459. D(C  49,C  50,C  32,C  33)      0.0887         0.025065   
    460. D(C  49,C  50,C  32,C   0)   -179.7700         0.025065   
    -----------------------------------------------------------------

Number of atoms                         .... 80
Number of degrees of freedom            .... 460

         *************************************************************
         *                GEOMETRY OPTIMIZATION CYCLE   1            *
         *************************************************************
---------------------------------
CARTESIAN COORDINATES (ANGSTROEM)
---------------------------------
  C     -3.772345    0.603262    0.444844
  C     -2.874189   -0.225458   -0.118344
  C     -1.444650   -0.103408   -0.030956
  C     -0.741428    0.887077    0.646501
  N      0.578134    0.991940    0.716345
  C      1.385615    0.125747    0.123139
  C      2.793637    0.359126    0.275392
  C      3.763613   -0.410777   -0.253746
  C      5.186704   -0.204975   -0.125900
  C      5.752763    0.842115    0.611260
  C      7.118739    0.992821    0.698464
  C      7.971402    0.102375    0.045793
  N      9.357071    0.260357    0.130913
  C     10.268018   -0.731258    0.443511
  C     10.048660   -2.056532    0.790758
  C     11.149794   -2.835693    1.091016
  C     12.441079   -2.314390    1.058842
  C     12.663380   -0.989485    0.740655
  C     11.572522   -0.186846    0.434886
  C     11.434114    1.201256    0.092239
  C     12.344024    2.234049   -0.089917
  C     11.868172    3.478493   -0.451773
  C     10.506228    3.694461   -0.648513
  C      9.581767    2.682358   -0.473279
  C     10.051352    1.436566   -0.082660
  C      7.423232   -0.946083   -0.691836
  C      6.056230   -1.094185   -0.770355
  C      0.812152   -0.953958   -0.611830
  N      1.411942   -1.936193   -1.281841
  S      0.287347   -2.888210   -1.930680
  N     -1.013050   -2.109346   -1.399201
  C     -0.619917   -1.057378   -0.681811
  C     -5.210444    0.490925    0.358985
  C     -6.002229    1.431768    1.028988
  C     -7.377820    1.375855    0.985944
  C     -8.013767    0.371404    0.258610
  N     -9.409306    0.309269    0.206154
  C    -10.255978    1.361661   -0.086491
  C     -9.953124    2.669139   -0.438527
  C    -11.003970    3.523311   -0.713594
  C    -12.327308    3.092800   -0.651877
  C    -12.633787    1.786136   -0.328448
  C    -11.594662    0.909078   -0.047686
  C    -11.544928   -0.485543    0.292331
  C    -12.519496   -1.453560    0.494893
  C    -12.122544   -2.728407    0.845751
  C    -10.774588   -3.038235    1.011320
  C     -9.786748   -2.092044    0.815313
  C    -10.178023   -0.816003    0.436102
  C     -7.239520   -0.570942   -0.417599
  C     -5.864582   -0.512673   -0.365014
  H     -3.420045    1.445546    1.025896
  H     -3.200402   -1.075664   -0.700722
  H     -1.270173    1.665462    1.179371
  H      3.018643    1.234139    0.867869
  H      3.467420   -1.271451   -0.838626
  H      5.114865    1.539322    1.131038
  H      7.541003    1.791282    1.290316
  H      9.051053   -2.466119    0.839269
  H     11.004932   -3.871408    1.360892
  H     13.275682   -2.956780    1.297176
  H     13.662146   -0.579805    0.733458
  H     13.401068    2.060981    0.044722
  H     12.558425    4.296299   -0.595876
  H     10.164738    4.674038   -0.949010
  H      8.530905    2.856217   -0.648723
  H      8.077935   -1.626369   -1.215794
  H      5.641202   -1.906157   -1.349919
  H     -5.521899    2.213043    1.600809
  H     -7.970964    2.096507    1.528869
  H     -8.930760    3.008505   -0.509373
  H    -10.793774    4.546950   -0.986629
  H    -13.120474    3.792022   -0.871051
  H    -13.658224    1.446911   -0.298076
  H    -13.564870   -1.207892    0.383986
  H    -12.864122   -3.496952    1.005326
  H    -10.494852   -4.039665    1.303620
  H     -8.746527   -2.338182    0.966156
  H     -7.728719   -1.337151   -1.000474
  H     -5.290162   -1.250004   -0.903234

----------------------------
CARTESIAN COORDINATES (A.U.)
----------------------------
  NO LB      ZA    FRAG     MASS         X           Y           Z
   0 C     6.0000    0    12.011   -7.128698    1.140000    0.840633
   1 C     6.0000    0    12.011   -5.431431   -0.426053   -0.223638
   2 C     6.0000    0    12.011   -2.729993   -0.195413   -0.058498
   3 C     6.0000    0    12.011   -1.401095    1.676332    1.221709
   4 N     7.0000    0    14.007    1.092515    1.874496    1.353697
   5 C     6.0000    0    12.011    2.618433    0.237627    0.232700
   6 C     6.0000    0    12.011    5.279209    0.678650    0.520416
   7 C     6.0000    0    12.011    7.112198   -0.776256   -0.479511
   8 C     6.0000    0    12.011    9.801450   -0.387346   -0.237916
   9 C     6.0000    0    12.011   10.871147    1.591366    1.155115
  10 C     6.0000    0    12.011   13.452468    1.876160    1.319906
  11 C     6.0000    0    12.011   15.063768    0.193461    0.086536
  12 N     7.0000    0    14.007   17.682302    0.492004    0.247389
  13 C     6.0000    0    12.011   19.403742   -1.381877    0.838115
  14 C     6.0000    0    12.011   18.989215   -3.886283    1.494316
  15 C     6.0000    0    12.011   21.070057   -5.358683    2.061721
  16 C     6.0000    0    12.011   23.510232   -4.373563    2.000921
  17 C     6.0000    0    12.011   23.930320   -1.869856    1.399635
  18 C     6.0000    0    12.011   21.868897   -0.353088    0.821815
  19 C     6.0000    0    12.011   21.607345    2.270045    0.174306
  20 C     6.0000    0    12.011   23.326825    4.221741   -0.169918
  21 C     6.0000    0    12.011   22.427595    6.573399   -0.853727
  22 C     6.0000    0    12.011   19.853894    6.981519   -1.225512
  23 C     6.0000    0    12.011   18.106916    5.068921   -0.894367
  24 C     6.0000    0    12.011   18.994302    2.714716   -0.156205
  25 C     6.0000    0    12.011   14.027876   -1.787838   -1.307381
  26 C     6.0000    0    12.011   11.444616   -2.067710   -1.455760
  27 C     6.0000    0    12.011    1.534744   -1.802719   -1.156191
  28 N     7.0000    0    14.007    2.668183   -3.658875   -2.422329
  29 S    16.0000    0    32.060    0.543007   -5.457925   -3.648456
  30 N     7.0000    0    14.007   -1.914387   -3.986087   -2.644106
  31 C     6.0000    0    12.011   -1.171474   -1.998155   -1.288436
  32 C     6.0000    0    12.011   -9.846313    0.927713    0.678384
  33 C     6.0000    0    12.011  -11.342568    2.705648    1.944506
  34 C     6.0000    0    12.011  -13.942059    2.599989    1.863165
  35 C     6.0000    0    12.011  -15.143825    0.701851    0.488702
  36 N     7.0000    0    14.007  -17.781011    0.584433    0.389575
  37 C     6.0000    0    12.011  -19.380990    2.573167   -0.163445
  38 C     6.0000    0    12.011  -18.808679    5.043942   -0.828696
  39 C     6.0000    0    12.011  -20.794490    6.658093   -1.348496
  40 C     6.0000    0    12.011  -23.295236    5.844545   -1.231869
  41 C     6.0000    0    12.011  -23.874397    3.375308   -0.620676
  42 C     6.0000    0    12.011  -21.910737    1.717908   -0.090113
  43 C     6.0000    0    12.011  -21.816751   -0.917542    0.552425
  44 C     6.0000    0    12.011  -23.658418   -2.746831    0.935212
  45 C     6.0000    0    12.011  -22.908288   -5.155943    1.598237
  46 C     6.0000    0    12.011  -20.361021   -5.741431    1.911117
  47 C     6.0000    0    12.011  -18.494273   -3.953389    1.540717
  48 C     6.0000    0    12.011  -19.233676   -1.542022    0.824113
  49 C     6.0000    0    12.011  -13.680711   -1.078924   -0.789148
  50 C     6.0000    0    12.011  -11.082454   -0.968811   -0.689776
  51 H     1.0000    0     1.008   -6.462948    2.731686    1.938663
  52 H     1.0000    0     1.008   -6.047884   -2.032711   -1.324173
  53 H     1.0000    0     1.008   -2.400279    3.147267    2.228688
  54 H     1.0000    0     1.008    5.704409    2.332184    1.640035
  55 H     1.0000    0     1.008    6.552475   -2.402694   -1.584774
  56 H     1.0000    0     1.008    9.665695    2.908898    2.137351
  57 H     1.0000    0     1.008   14.250431    3.385033    2.438344
  58 H     1.0000    0     1.008   17.104011   -4.660289    1.585989
  59 H     1.0000    0     1.008   20.796307   -7.315902    2.571713
  60 H     1.0000    0     1.008   25.087404   -5.587504    2.451308
  61 H     1.0000    0     1.008   25.817715   -1.095672    1.386034
  62 H     1.0000    0     1.008   25.324348    3.894690    0.084513
  63 H     1.0000    0     1.008   23.731983    8.118828   -1.126042
  64 H     1.0000    0     1.008   19.208571    8.832652   -1.793369
  65 H     1.0000    0     1.008   16.121073    5.397468   -1.225908
  66 H     1.0000    0     1.008   15.265084   -3.073392   -2.297518
  67 H     1.0000    0     1.008   10.660327   -3.602115   -2.550977
  68 H     1.0000    0     1.008  -10.434877    4.182046    3.025091
  69 H     1.0000    0     1.008  -15.062939    3.961825    2.889144
  70 H     1.0000    0     1.008  -16.876690    5.685251   -0.962575
  71 H     1.0000    0     1.008  -20.397276    8.592490   -1.864459
  72 H     1.0000    0     1.008  -24.794103    7.165884   -1.646048
  73 H     1.0000    0     1.008  -25.810302    2.734265   -0.563281
  74 H     1.0000    0     1.008  -25.633889   -2.282586    0.725628
  75 H     1.0000    0     1.008  -24.309667   -6.608282    1.899790
  76 H     1.0000    0     1.008  -19.832397   -7.633861    2.463485
  77 H     1.0000    0     1.008  -16.528540   -4.418524    1.825770
  78 H     1.0000    0     1.008  -14.605162   -2.526849   -1.890621
  79 H     1.0000    0     1.008   -9.996958   -2.362165   -1.706865



           ************************************************************
           *        Program running with 40 parallel MPI-processes    *
           *              working on a common directory               *
           ************************************************************
------------------------------------------------------------------------------
                   ___                                                        
                  /   \      - P O W E R E D   B Y -                         
                 /     \                                                     
                 |  |  |   _    _      __       _____    __    __             
                 |  |  |  | |  | |    /  \     |  _  \  |  |  /  |          
                  \  \/   | |  | |   /    \    | | | |  |  | /  /          
                 / \  \   | |__| |  /  /\  \   | |_| |  |  |/  /          
                |  |  |   |  __  | /  /__\  \  |    /   |      \           
                |  |  |   | |  | | |   __   |  |    \   |  |\   \          
                \     /   | |  | | |  |  |  |  | |\  \  |  | \   \       
                 \___/    |_|  |_| |__|  |__|  |_| \__\ |__|  \__/        
                                                                              
                      - O R C A' S   B I G   F R I E N D -                    
                                      &                                       
                       - I N T E G R A L  F E E D E R -                       
                                                                              
 v1 FN, 2020, v2 2021                                                         
------------------------------------------------------------------------------


Reading SHARK input file /dev/shm/slurm.malcolms.9695294/9695294/freq/FREQ_OPT.SHARKINP.tmp ... ok
----------------------
SHARK INTEGRAL PACKAGE
----------------------

Number of atoms                             ...     80
Number of basis functions                   ...    863
Number of shells                            ...    395
Maximum angular momentum                    ...      2
Integral batch strategy                     ... SHARK/LIBINT Hybrid
RI-J (if used) integral strategy            ... SPLIT-RIJ (Revised 2003 algorithm where possible)
Printlevel                                  ...      1
Contraction scheme used                     ... SEGMENTED contraction
Coulomb Range Separation                    ... NOT USED
Exchange Range Separation                   ... NOT USED
Finite Nucleus Model                        ... NOT USED
Auxiliary Coulomb fitting basis             ... AVAILABLE
   # of basis functions in Aux-J            ...   2820
   # of shells in Aux-J                     ...    912
   Maximum angular momentum in Aux-J        ...      4
Auxiliary J/K fitting basis                 ... NOT available
Auxiliary Correlation fitting basis         ... NOT available
Auxiliary 'external' fitting basis          ... NOT available
Integral threshold                          ...     2.500000e-11
Primitive cut-off                           ...     2.500000e-12
Primitive pair pre-selection threshold      ...     2.500000e-12

Calculating pre-screening integrals         ... done (  0.0 sec) Dimension = 395
Organizing shell pair data                  ... done (  0.2 sec)
Shell pair information
Total number of shell pairs                 ...     78210
Shell pairs after pre-screening             ...     28394
Total number of primitive shell pairs       ...    292226
Primitive shell pairs kept                  ...     65938
          la=0 lb=0:   8392 shell pairs
          la=1 lb=0:  10508 shell pairs
          la=1 lb=1:   3406 shell pairs
          la=2 lb=0:   3479 shell pairs
          la=2 lb=1:   2237 shell pairs
          la=2 lb=2:    372 shell pairs

Calculating one electron integrals          ... done (  0.0 sec)
Calculating RI/J V-Matrix + Cholesky decomp.... done (  0.4 sec)
Calculating Nuclear repulsion               ... done (  0.0 sec) ENN=   5272.473154988104 Eh

SHARK setup successfully completed in   1.2 seconds

Maximum memory used throughout the entire GTOINT-calculation: 51.3 MB


           ************************************************************
           *        Program running with 40 parallel MPI-processes    *
           *              working on a common directory               *
           ************************************************************

Diagonalization of the overlap matrix:
Smallest eigenvalue                        ... 2.148e-04
Time for diagonalization                   ...    0.288 sec
Threshold for overlap eigenvalues          ... 1.000e-08
Number of eigenvalues below threshold      ... 0
Time for construction of square roots      ...    0.105 sec
Total time needed                          ...    0.399 sec

Time for model grid setup =    0.392 sec

Loading Hartree-Fock densities                     ... done
Calculating cut-offs                               ... done
Initializing the effective Hamiltonian             ... done
Setting up the integral package (SHARK)            ... done
Starting the Coulomb interaction                   ... done (   0.2 sec)
Reading the grid                                   ... done
Mapping shells                                     ... done
Starting the XC term evaluation                    ... done (   0.1 sec)
  promolecular density results
     # of electrons  =    349.965921929
     EX              =   -296.695196440
     EC              =    -11.927944747
     EX+EC           =   -308.623141187
Transforming the Hamiltonian                       ... done (   0.1 sec)
Diagonalizing the Hamiltonian                      ... done (   0.2 sec)
Back transforming the eigenvectors                 ... done (   0.0 sec)
Now organizing SCF variables                       ... done
-------------------
DFT GRID GENERATION
-------------------

General Integration Accuracy     IntAcc      ... 4.959
Radial Grid Type                 RadialGrid  ... OptM3 with GC (2021)
Angular Grid (max. ang.)         AngularGrid ... 6 (Lebedev-590)
Angular grid pruning method      GridPruning ... 4 (adaptive)
Weight generation scheme         WeightScheme... Becke
Basis function cutoff            BFCut       ... 1.0000e-11
Integration weight cutoff        WCut        ... 1.0000e-14
Angular grids for H and He will be reduced by one unit
Partially contracted basis set               ... off
Rotationally invariant grid construction     ... off

Total number of grid points                  ...   968344
Total number of batches                      ...    15169
Average number of points per batch           ...       63
Average number of grid points per atom       ...    12104
Time for grid setup =    9.698 sec

--------------------
COSX GRID GENERATION
--------------------

GRIDX 1
-------
General Integration Accuracy     IntAcc      ... 4.020
Radial Grid Type                 RadialGrid  ... OptM3 with GC (2021)
Angular Grid (max. ang.)         AngularGrid ... 2 (Lebedev-110)
Angular grid pruning method      GridPruning ... 4 (adaptive)
Weight generation scheme         WeightScheme... Becke
Basis function cutoff            BFCut       ... 1.0000e-11
Integration weight cutoff        WCut        ... 1.0000e-14
Angular grids for H and He will be reduced by one unit
Partially contracted basis set               ... on
Rotationally invariant grid construction     ... off

Total number of grid points                  ...   110370
Total number of batches                      ...     1761
Average number of points per batch           ...       62
Average number of grid points per atom       ...     1380
UseSFitting                                  ... on

GRIDX 2
-------
General Integration Accuracy     IntAcc      ... 4.338
Radial Grid Type                 RadialGrid  ... OptM3 with GC (2021)
Angular Grid (max. ang.)         AngularGrid ... 3 (Lebedev-194)
Angular grid pruning method      GridPruning ... 4 (adaptive)
Weight generation scheme         WeightScheme... Becke
Basis function cutoff            BFCut       ... 1.0000e-11
Integration weight cutoff        WCut        ... 1.0000e-14
Angular grids for H and He will be reduced by one unit
Partially contracted basis set               ... on
Rotationally invariant grid construction     ... off

Total number of grid points                  ...   242052
Total number of batches                      ...     3819
Average number of points per batch           ...       63
Average number of grid points per atom       ...     3026
UseSFitting                                  ... on

GRIDX 3
-------
General Integration Accuracy     IntAcc      ... 4.871
Radial Grid Type                 RadialGrid  ... OptM3 with GC (2021)
Angular Grid (max. ang.)         AngularGrid ... 4 (Lebedev-302)
Angular grid pruning method      GridPruning ... 4 (adaptive)
Weight generation scheme         WeightScheme... Becke
Basis function cutoff            BFCut       ... 1.0000e-11
Integration weight cutoff        WCut        ... 1.0000e-14
Angular grids for H and He will be reduced by one unit
Partially contracted basis set               ... on
Rotationally invariant grid construction     ... off

Total number of grid points                  ...   445428
Total number of batches                      ...     7001
Average number of points per batch           ...       63
Average number of grid points per atom       ...     5568
UseSFitting                                  ... on

Time for X-Grid setup             =    4.362 sec

--------------
SCF ITERATIONS
--------------
ITER       Energy         Delta-E        Max-DP      RMS-DP      [F,P]     Damp
               ***  Starting incremental Fock matrix formation  ***
  0  -2399.2903605603   0.000000000000 0.09893308  0.00121576  0.1685504 0.7000
  1  -2399.7029084805  -0.412547920167 0.05530339  0.00085701  0.0799935 0.7000
                               ***Turning on DIIS***
  2  -2399.8846032973  -0.181694816833 0.13196788  0.00159467  0.0354511 0.0000
  3  -2400.1495715404  -0.264968243143 0.08541357  0.00054425  0.0437662 0.0000
  4  -2400.2152970782  -0.065725537789 0.01775236  0.00015809  0.0120755 0.0000
  5  -2400.2187545210  -0.003457442725 0.00480512  0.00005357  0.0040059 0.0000
                      *** Initiating the SOSCF procedure ***
                           *** Shutting down DIIS ***
                      *** Re-Reading the Fockian *** 
                      *** Removing any level shift *** 
ITER      Energy       Delta-E        Grad      Rot      Max-DP    RMS-DP
  6  -2400.21911393  -0.0003594048  0.000860  0.000860  0.001716  0.000021
               *** Restarting incremental Fock matrix formation ***
  7  -2400.21912353  -0.0000096044  0.000330  0.001500  0.001839  0.000016
  8  -2400.21912601  -0.0000024765  0.000408  0.000954  0.000737  0.000009
  9  -2400.21913505  -0.0000090386  0.000110  0.000363  0.000530  0.000005
 10  -2400.21913477   0.0000002732  0.000113  0.000264  0.000370  0.000003
 11  -2400.21913604  -0.0000012729  0.000047  0.000170  0.000198  0.000002
 12  -2400.21913591   0.0000001300  0.000058  0.000081  0.000151  0.000001
 13  -2400.21913621  -0.0000002938  0.000013  0.000044  0.000071  0.000001
 14  -2400.21913615   0.0000000581  0.000016  0.000024  0.000036  0.000000
 15  -2400.21913623  -0.0000000821  0.000003  0.000013  0.000035  0.000000
 16  -2400.21913623   0.0000000018  0.000004  0.000009  0.000012  0.000000
                  ***Gradient check signals convergence***
              ***Rediagonalizing the Fockian in SOSCF/NRSCF***

               *****************************************************
               *                     SUCCESS                       *
               *           SCF CONVERGED AFTER  17 CYCLES          *
               *****************************************************

Old exchange energy                            =    -75.417651684 Eh
New exchange energy                            =    -75.417631013 Eh
Exchange energy change after final integration =      0.000020671 Eh
Total energy after final integration           =  -2400.219115586 Eh
Final COS-X integration done in                =    14.176 sec
Total Energy       :        -2400.21911559 Eh          -65313.28260 eV
  Last Energy change         ...   -2.5657e-08  Tolerance :   1.0000e-08
  Last MAX-Density change    ...    9.3259e-15  Tolerance :   1.0000e-07
             **** THE GBW FILE WAS UPDATED (/dev/shm/slurm.malcolms.9695294/9695294/freq/FREQ_OPT.gbw) ****
             **** DENSITY /dev/shm/slurm.malcolms.9695294/9695294/freq/FREQ_OPT.scfp WAS UPDATED ****
             **** ENERGY FILE WAS UPDATED (/dev/shm/slurm.malcolms.9695294/9695294/freq/FREQ_OPT.en.tmp) ****
             **** THE GBW FILE WAS UPDATED (/dev/shm/slurm.malcolms.9695294/9695294/freq/FREQ_OPT.gbw) ****
             **** DENSITY /dev/shm/slurm.malcolms.9695294/9695294/freq/FREQ_OPT.scfp WAS UPDATED ****
----------------
ORBITAL ENERGIES
----------------

  NO   OCC          E(Eh)            E(eV) 
   0   2.0000     -89.114236     -2424.9217 
   1   2.0000     -14.451693      -393.2506 
   2   2.0000     -14.451244      -393.2383 
   3   2.0000     -14.439257      -392.9121 
   4   2.0000     -14.435216      -392.8022 
   5   2.0000     -14.398114      -391.7926 
   6   2.0000     -10.300851      -280.3004 
   7   2.0000     -10.299320      -280.2588 
   8   2.0000     -10.295464      -280.1538 
   9   2.0000     -10.294404      -280.1250 
  10   2.0000     -10.293576      -280.1025 
  11   2.0000     -10.279775      -279.7269 
  12   2.0000     -10.275914      -279.6218 
  13   2.0000     -10.275823      -279.6194 
  14   2.0000     -10.275636      -279.6143 
  15   2.0000     -10.275575      -279.6126 
  16   2.0000     -10.266130      -279.3556 
  17   2.0000     -10.258298      -279.1425 
  18   2.0000     -10.256273      -279.0874 
  19   2.0000     -10.253877      -279.0222 
  20   2.0000     -10.252758      -278.9917 
  21   2.0000     -10.252613      -278.9878 
  22   2.0000     -10.252489      -278.9844 
  23   2.0000     -10.252280      -278.9787 
  24   2.0000     -10.252104      -278.9739 
  25   2.0000     -10.251946      -278.9696 
  26   2.0000     -10.251723      -278.9636 
  27   2.0000     -10.251394      -278.9546 
  28   2.0000     -10.251386      -278.9544 
  29   2.0000     -10.248896      -278.8867 
  30   2.0000     -10.244172      -278.7581 
  31   2.0000     -10.238278      -278.5977 
  32   2.0000     -10.238185      -278.5952 
  33   2.0000     -10.238170      -278.5948 
  34   2.0000     -10.238096      -278.5928 
  35   2.0000     -10.238085      -278.5925 
  36   2.0000     -10.237984      -278.5897 
  37   2.0000     -10.237955      -278.5889 
  38   2.0000     -10.237955      -278.5889 
  39   2.0000     -10.237740      -278.5831 
  40   2.0000     -10.237573      -278.5785 
  41   2.0000     -10.237530      -278.5774 
  42   2.0000     -10.237348      -278.5724 
  43   2.0000     -10.236290      -278.5436 
  44   2.0000     -10.236178      -278.5406 
  45   2.0000     -10.236105      -278.5386 
  46   2.0000     -10.236092      -278.5382 
  47   2.0000     -10.230328      -278.3814 
  48   2.0000     -10.230253      -278.3793 
  49   2.0000     -10.230101      -278.3752 
  50   2.0000     -10.230092      -278.3750 
  51   2.0000      -8.112112      -220.7418 
  52   2.0000      -6.055319      -164.7736 
  53   2.0000      -6.047775      -164.5683 
  54   2.0000      -6.046904      -164.5446 
  55   2.0000      -1.073507       -29.2116 
  56   2.0000      -1.032100       -28.0849 
  57   2.0000      -1.031766       -28.0758 
  58   2.0000      -0.983480       -26.7619 
  59   2.0000      -0.928763       -25.2729 
  60   2.0000      -0.908626       -24.7250 
  61   2.0000      -0.908173       -24.7126 
  62   2.0000      -0.878173       -23.8963 
  63   2.0000      -0.877287       -23.8722 
  64   2.0000      -0.875391       -23.8206 
  65   2.0000      -0.875193       -23.8152 
  66   2.0000      -0.856301       -23.3011 
  67   2.0000      -0.839746       -22.8507 
  68   2.0000      -0.829323       -22.5670 
  69   2.0000      -0.818364       -22.2688 
  70   2.0000      -0.806046       -21.9336 
  71   2.0000      -0.793014       -21.5790 
  72   2.0000      -0.788139       -21.4464 
  73   2.0000      -0.787917       -21.4403 
  74   2.0000      -0.777205       -21.1488 
  75   2.0000      -0.773862       -21.0579 
  76   2.0000      -0.773702       -21.0535 
  77   2.0000      -0.761435       -20.7197 
  78   2.0000      -0.744815       -20.2674 
  79   2.0000      -0.739573       -20.1248 
  80   2.0000      -0.739395       -20.1200 
  81   2.0000      -0.727645       -19.8002 
  82   2.0000      -0.705503       -19.1977 
  83   2.0000      -0.681379       -18.5413 
  84   2.0000      -0.677924       -18.4473 
  85   2.0000      -0.667646       -18.1676 
  86   2.0000      -0.655351       -17.8330 
  87   2.0000      -0.654159       -17.8006 
  88   2.0000      -0.650643       -17.7049 
  89   2.0000      -0.644316       -17.5327 
  90   2.0000      -0.627021       -17.0621 
  91   2.0000      -0.626582       -17.0502 
  92   2.0000      -0.625850       -17.0302 
  93   2.0000      -0.612061       -16.6550 
  94   2.0000      -0.602053       -16.3827 
  95   2.0000      -0.598190       -16.2776 
  96   2.0000      -0.595496       -16.2043 
  97   2.0000      -0.594903       -16.1881 
  98   2.0000      -0.574824       -15.6418 
  99   2.0000      -0.569422       -15.4948 
 100   2.0000      -0.564901       -15.3717 
 101   2.0000      -0.560703       -15.2575 
 102   2.0000      -0.545939       -14.8558 
 103   2.0000      -0.540868       -14.7178 
 104   2.0000      -0.539995       -14.6940 
 105   2.0000      -0.529686       -14.4135 
 106   2.0000      -0.526823       -14.3356 
 107   2.0000      -0.518899       -14.1200 
 108   2.0000      -0.513742       -13.9796 
 109   2.0000      -0.506391       -13.7796 
 110   2.0000      -0.496954       -13.5228 
 111   2.0000      -0.495402       -13.4806 
 112   2.0000      -0.485813       -13.2196 
 113   2.0000      -0.484375       -13.1805 
 114   2.0000      -0.482039       -13.1169 
 115   2.0000      -0.476035       -12.9536 
 116   2.0000      -0.474761       -12.9189 
 117   2.0000      -0.474362       -12.9080 
 118   2.0000      -0.471104       -12.8194 
 119   2.0000      -0.467624       -12.7247 
 120   2.0000      -0.459713       -12.5094 
 121   2.0000      -0.457624       -12.4526 
 122   2.0000      -0.456260       -12.4155 
 123   2.0000      -0.455826       -12.4037 
 124   2.0000      -0.453951       -12.3526 
 125   2.0000      -0.452262       -12.3067 
 126   2.0000      -0.445955       -12.1350 
 127   2.0000      -0.445615       -12.1258 
 128   2.0000      -0.443873       -12.0784 
 129   2.0000      -0.440250       -11.9798 
 130   2.0000      -0.439081       -11.9480 
 131   2.0000      -0.435086       -11.8393 
 132   2.0000      -0.433234       -11.7889 
 133   2.0000      -0.426531       -11.6065 
 134   2.0000      -0.422268       -11.4905 
 135   2.0000      -0.413592       -11.2544 
 136   2.0000      -0.411727       -11.2037 
 137   2.0000      -0.409789       -11.1509 
 138   2.0000      -0.405427       -11.0322 
 139   2.0000      -0.399914       -10.8822 
 140   2.0000      -0.392137       -10.6706 
 141   2.0000      -0.385342       -10.4857 
 142   2.0000      -0.382786       -10.4161 
 143   2.0000      -0.381819       -10.3898 
 144   2.0000      -0.381428       -10.3792 
 145   2.0000      -0.381153       -10.3717 
 146   2.0000      -0.377674       -10.2770 
 147   2.0000      -0.377264       -10.2659 
 148   2.0000      -0.373965       -10.1761 
 149   2.0000      -0.371589       -10.1115 
 150   2.0000      -0.359793        -9.7905 
 151   2.0000      -0.358939        -9.7672 
 152   2.0000      -0.353431        -9.6174 
 153   2.0000      -0.353230        -9.6119 
 154   2.0000      -0.353051        -9.6070 
 155   2.0000      -0.352261        -9.5855 
 156   2.0000      -0.344665        -9.3788 
 157   2.0000      -0.333634        -9.0786 
 158   2.0000      -0.327202        -8.9036 
 159   2.0000      -0.320410        -8.7188 
 160   2.0000      -0.310644        -8.4531 
 161   2.0000      -0.302603        -8.2343 
 162   2.0000      -0.301785        -8.2120 
 163   2.0000      -0.291908        -7.9432 
 164   2.0000      -0.287540        -7.8244 
 165   2.0000      -0.287223        -7.8157 
 166   2.0000      -0.279904        -7.6166 
 167   2.0000      -0.273509        -7.4426 
 168   2.0000      -0.273349        -7.4382 
 169   2.0000      -0.263265        -7.1638 
 170   2.0000      -0.232459        -6.3255 
 171   2.0000      -0.232266        -6.3203 
 172   2.0000      -0.231247        -6.2926 
 173   2.0000      -0.217117        -5.9080 
 174   2.0000      -0.206230        -5.6118 
 175   0.0000      -0.113929        -3.1002 
 176   0.0000      -0.062146        -1.6911 
 177   0.0000      -0.048689        -1.3249 
 178   0.0000      -0.033173        -0.9027 
 179   0.0000      -0.033022        -0.8986 
 180   0.0000      -0.019244        -0.5236 
 181   0.0000      -0.018748        -0.5102 
 182   0.0000      -0.005712        -0.1554 
 183   0.0000       0.001757         0.0478 
 184   0.0000       0.001935         0.0527 
 185   0.0000       0.003285         0.0894 
 186   0.0000       0.012725         0.3463 
 187   0.0000       0.021881         0.5954 
 188   0.0000       0.033780         0.9192 
 189   0.0000       0.039244         1.0679 
 190   0.0000       0.039403         1.0722 
 191   0.0000       0.050358         1.3703 
 192   0.0000       0.071213         1.9378 
 193   0.0000       0.074737         2.0337 
 194   0.0000       0.075446         2.0530 
 195   0.0000       0.081834         2.2268 
 196   0.0000       0.082346         2.2407 
 197   0.0000       0.084383         2.2962 
 198   0.0000       0.085196         2.3183 
 199   0.0000       0.086601         2.3565 
 200   0.0000       0.089234         2.4282 
 201   0.0000       0.097552         2.6545 
 202   0.0000       0.104771         2.8510 
 203   0.0000       0.104952         2.8559 
 204   0.0000       0.108470         2.9516 
 205   0.0000       0.123467         3.3597 
 206   0.0000       0.125408         3.4125 
 207   0.0000       0.127912         3.4807 
 208   0.0000       0.131339         3.5739 
 209   0.0000       0.135398         3.6844 
 210   0.0000       0.136349         3.7103 
 211   0.0000       0.138003         3.7553 
 212   0.0000       0.143202         3.8967 
 213   0.0000       0.148898         4.0517 
 214   0.0000       0.153816         4.1855 
 215   0.0000       0.159952         4.3525 
 216   0.0000       0.160125         4.3572 
 217   0.0000       0.161601         4.3974 
 218   0.0000       0.161849         4.4041 
 219   0.0000       0.169651         4.6164 
 220   0.0000       0.172892         4.7046 
 221   0.0000       0.175539         4.7767 
 222   0.0000       0.179407         4.8819 
 223   0.0000       0.184779         5.0281 
 224   0.0000       0.191454         5.2097 
 225   0.0000       0.192663         5.2426 
 226   0.0000       0.192974         5.2511 
 227   0.0000       0.195032         5.3071 
 228   0.0000       0.195312         5.3147 
 229   0.0000       0.199987         5.4419 
 230   0.0000       0.200321         5.4510 
 231   0.0000       0.204830         5.5737 
 232   0.0000       0.211655         5.7594 
 233   0.0000       0.219276         5.9668 
 234   0.0000       0.228412         6.2154 
 235   0.0000       0.235609         6.4112 
 236   0.0000       0.245338         6.6760 
 237   0.0000       0.249127         6.7791 
 238   0.0000       0.249864         6.7992 
 239   0.0000       0.250272         6.8103 
 240   0.0000       0.254102         6.9145 
 241   0.0000       0.258882         7.0445 
 242   0.0000       0.263201         7.1621 
 243   0.0000       0.266085         7.2405 
 244   0.0000       0.268288         7.3005 
 245   0.0000       0.269874         7.3436 
 246   0.0000       0.277814         7.5597 
 247   0.0000       0.279797         7.6137 
 248   0.0000       0.281910         7.6712 
 249   0.0000       0.288296         7.8449 
 250   0.0000       0.291698         7.9375 
 251   0.0000       0.296186         8.0596 
 252   0.0000       0.298446         8.1211 
 253   0.0000       0.302233         8.2242 
 254   0.0000       0.303298         8.2532 
 255   0.0000       0.305643         8.3170 
 256   0.0000       0.311208         8.4684 
 257   0.0000       0.313612         8.5338 
 258   0.0000       0.315742         8.5918 
 259   0.0000       0.316614         8.6155 
 260   0.0000       0.317350         8.6355 
 261   0.0000       0.323776         8.8104 
 262   0.0000       0.328893         8.9496 
 263   0.0000       0.332404         9.0452 
 264   0.0000       0.335411         9.1270 
 265   0.0000       0.339880         9.2486 
 266   0.0000       0.342678         9.3248 
 267   0.0000       0.343617         9.3503 
 268   0.0000       0.345290         9.3958 
 269   0.0000       0.346920         9.4402 
 270   0.0000       0.351860         9.5746 
 271   0.0000       0.355928         9.6853 
 272   0.0000       0.361804         9.8452 
 273   0.0000       0.369681        10.0595 
 274   0.0000       0.377102        10.2615 
 275   0.0000       0.377746        10.2790 
 276   0.0000       0.378275        10.2934 
 277   0.0000       0.380427        10.3519 
 278   0.0000       0.383622        10.4389 
 279   0.0000       0.385017        10.4769 
 280   0.0000       0.389298        10.5933 
 281   0.0000       0.389958        10.6113 
 282   0.0000       0.393520        10.7082 
 283   0.0000       0.396260        10.7828 
 284   0.0000       0.402214        10.9448 
 285   0.0000       0.409182        11.1344 
 286   0.0000       0.412729        11.2309 
 287   0.0000       0.415535        11.3073 
 288   0.0000       0.417107        11.3501 
 289   0.0000       0.420096        11.4314 
 290   0.0000       0.427175        11.6240 
 291   0.0000       0.428503        11.6602 
 292   0.0000       0.433566        11.7979 
 293   0.0000       0.437883        11.9154 
 294   0.0000       0.440943        11.9987 
 295   0.0000       0.446415        12.1476 
 296   0.0000       0.448864        12.2142 
 297   0.0000       0.450950        12.2710 
 298   0.0000       0.459310        12.4985 
 299   0.0000       0.460357        12.5269 
 300   0.0000       0.462314        12.5802 
 301   0.0000       0.463321        12.6076 
 302   0.0000       0.466238        12.6870 
 303   0.0000       0.468163        12.7394 
 304   0.0000       0.473612        12.8876 
 305   0.0000       0.477116        12.9830 
[...]
 560   0.0000       1.569419        42.7061 
 561   0.0000       1.569924        42.7198 
 562   0.0000       1.582007        43.0486 
 563   0.0000       1.582034        43.0493 
 564   0.0000       1.618763        44.0488 
 565   0.0000       1.622375        44.1471 
 566   0.0000       1.647828        44.8397 
 567   0.0000       1.657074        45.0913 
 568   0.0000       1.658563        45.1318 
 569   0.0000       1.659593        45.1598 
 570   0.0000       1.660926        45.1961 
 571   0.0000       1.672771        45.5184 
 572   0.0000       1.672996        45.5245 
 573   0.0000       1.676577        45.6220 
 574   0.0000       1.677423        45.6450 
 575   0.0000       1.677519        45.6476 
 576   0.0000       1.679487        45.7012 
 577   0.0000       1.694248        46.1028 
 578   0.0000       1.698129        46.2084 
 579   0.0000       1.699862        46.2556 
 580   0.0000       1.703248        46.3477 
 581   0.0000       1.708395        46.4878 
 582   0.0000       1.709992        46.5312 
 583   0.0000       1.710946        46.5572 
 584   0.0000       1.712560        46.6011 
 585   0.0000       1.713411        46.6243 
 586   0.0000       1.717984        46.7487 
 587   0.0000       1.719627        46.7934 
 588   0.0000       1.724480        46.9255 
 589   0.0000       1.732238        47.1366 
 590   0.0000       1.733246        47.1640 
 591   0.0000       1.733924        47.1825 
 592   0.0000       1.734184        47.1896 
 593   0.0000       1.735265        47.2190 
 594   0.0000       1.738215        47.2992 
 595   0.0000       1.740131        47.3514 
 596   0.0000       1.744993        47.4837 
 597   0.0000       1.750063        47.6216 
 598   0.0000       1.751275        47.6546 
 599   0.0000       1.755537        47.7706 
 600   0.0000       1.757760        47.8311 
 601   0.0000       1.759190        47.8700 
 602   0.0000       1.764376        48.0111 
 603   0.0000       1.768560        48.1250 
 604   0.0000       1.769039        48.1380 
 605   0.0000       1.769114        48.1400 
 606   0.0000       1.773571        48.2613 
 607   0.0000       1.773991        48.2728 
 608   0.0000       1.782366        48.5006 
 609   0.0000       1.782879        48.5146 
 610   0.0000       1.784313        48.5536 
 611   0.0000       1.785221        48.5783 
 612   0.0000       1.788434        48.6658 
 613   0.0000       1.795638        48.8618 
 614   0.0000       1.803801        49.0839 
 615   0.0000       1.804531        49.1038 
 616   0.0000       1.804964        49.1156 
 617   0.0000       1.806292        49.1517 
 618   0.0000       1.817203        49.4486 
 619   0.0000       1.819118        49.5007 
 620   0.0000       1.819425        49.5091 
 621   0.0000       1.820299        49.5329 
 622   0.0000       1.820436        49.5366 
 623   0.0000       1.828331        49.7514 
 624   0.0000       1.831287        49.8319 
 625   0.0000       1.836462        49.9727 
 626   0.0000       1.837427        49.9989 
 627   0.0000       1.839092        50.0442 
 628   0.0000       1.841241        50.1027 
 629   0.0000       1.848522        50.3008 
 630   0.0000       1.853055        50.4242 
 631   0.0000       1.856126        50.5078 
 632   0.0000       1.868045        50.8321 
 633   0.0000       1.882903        51.2364 
 634   0.0000       1.891376        51.4670 
 635   0.0000       1.894715        51.5578 
 636   0.0000       1.894915        51.5633 
 637   0.0000       1.906448        51.8771 
 638   0.0000       1.911980        52.0276 
 639   0.0000       1.914678        52.1010 
 640   0.0000       1.921571        52.2886 
 641   0.0000       1.922537        52.3149 
 642   0.0000       1.931202        52.5507 
 643   0.0000       1.941347        52.8267 
 644   0.0000       1.942315        52.8531 
 645   0.0000       1.945320        52.9348 
 646   0.0000       1.946049        52.9547 
 647   0.0000       1.948659        53.0257 
 648   0.0000       1.954326        53.1799 
 649   0.0000       1.958061        53.2816 
 650   0.0000       1.958831        53.3025 
 651   0.0000       1.965622        53.4873 
 652   0.0000       1.965718        53.4899 
 653   0.0000       1.967744        53.5450 
 654   0.0000       1.976246        53.7764 
 655   0.0000       1.976844        53.7927 
 656   0.0000       1.987260        54.0761 
 657   0.0000       1.988160        54.1006 
 658   0.0000       1.990938        54.1762 
 659   0.0000       1.996231        54.3202 
 660   0.0000       1.997421        54.3526 
 661   0.0000       2.001577        54.4657 
 662   0.0000       2.010570        54.7104 
 663   0.0000       2.020080        54.9692 
 664   0.0000       2.025167        55.1076 
 665   0.0000       2.034631        55.3651 
 666   0.0000       2.039483        55.4972 
 667   0.0000       2.044937        55.6456 
 668   0.0000       2.054660        55.9102 
 669   0.0000       2.055888        55.9436 
 670   0.0000       2.063079        56.1392 
 671   0.0000       2.063535        56.1516 
 672   0.0000       2.064789        56.1858 
 673   0.0000       2.066523        56.2329 
 674   0.0000       2.069820        56.3227 
 675   0.0000       2.074967        56.4627 
 676   0.0000       2.078588        56.5613 
 677   0.0000       2.081132        56.6305 
 678   0.0000       2.082618        56.6709 
 679   0.0000       2.089314        56.8531 
 680   0.0000       2.094936        57.0061 
 681   0.0000       2.109932        57.4142 
 682   0.0000       2.111063        57.4450 
 683   0.0000       2.119244        57.6676 
 684   0.0000       2.125564        57.8396 
 685   0.0000       2.126734        57.8714 
 686   0.0000       2.128024        57.9065 
 687   0.0000       2.133631        58.0590 
 688   0.0000       2.139724        58.2249 
 689   0.0000       2.141009        58.2598 
 690   0.0000       2.141834        58.2823 
 691   0.0000       2.149319        58.4859 
 692   0.0000       2.150945        58.5302 
 693   0.0000       2.157089        58.6974 
 694   0.0000       2.157596        58.7112 
 695   0.0000       2.172154        59.1073 
 696   0.0000       2.175881        59.2087 
 697   0.0000       2.177279        59.2468 
 698   0.0000       2.185109        59.4598 
 699   0.0000       2.186501        59.4977 
 700   0.0000       2.194035        59.7027 
 701   0.0000       2.195851        59.7521 
 702   0.0000       2.199181        59.8427 
 703   0.0000       2.202159        59.9238 
 704   0.0000       2.208617        60.0995 
 705   0.0000       2.209744        60.1302 
 706   0.0000       2.212651        60.2093 
 707   0.0000       2.213820        60.2411 
 708   0.0000       2.219222        60.3881 
 709   0.0000       2.220059        60.4109 
 710   0.0000       2.220993        60.4363 
 711   0.0000       2.230857        60.7047 
 712   0.0000       2.234071        60.7922 
 713   0.0000       2.236533        60.8592 
 714   0.0000       2.246964        61.1430 
 715   0.0000       2.252384        61.2905 
 716   0.0000       2.261156        61.5292 
 717   0.0000       2.274696        61.8976 
 718   0.0000       2.281256        62.0761 
 719   0.0000       2.285645        62.1956 
 720   0.0000       2.290406        62.3251 
 721   0.0000       2.291759        62.3619 
 722   0.0000       2.297307        62.5129 
 723   0.0000       2.303310        62.6762 
 724   0.0000       2.303912        62.6926 
 725   0.0000       2.306724        62.7692 
 726   0.0000       2.307198        62.7821 
 727   0.0000       2.308237        62.8103 
 728   0.0000       2.309618        62.8479 
 729   0.0000       2.321207        63.1633 
 730   0.0000       2.327154        63.3251 
 731   0.0000       2.329461        63.3879 
 732   0.0000       2.334631        63.5285 
 733   0.0000       2.346249        63.8447 
 734   0.0000       2.347209        63.8708 
 735   0.0000       2.348376        63.9026 
 736   0.0000       2.351107        63.9769 
 737   0.0000       2.354388        64.0662 
 738   0.0000       2.366665        64.4002 
 739   0.0000       2.376463        64.6668 
 740   0.0000       2.394806        65.1660 
 741   0.0000       2.402467        65.3745 
 742   0.0000       2.403867        65.4125 
 743   0.0000       2.406847        65.4936 
 744   0.0000       2.408956        65.5510 
 745   0.0000       2.409935        65.5777 
 746   0.0000       2.419030        65.8251 
 747   0.0000       2.419100        65.8271 
 748   0.0000       2.419864        65.8478 
 749   0.0000       2.442195        66.4555 
 750   0.0000       2.455362        66.8138 
 751   0.0000       2.468071        67.1596 
 752   0.0000       2.478651        67.4475 
 753   0.0000       2.490828        67.7789 
 754   0.0000       2.496950        67.9455 
 755   0.0000       2.501746        68.0760 
 756   0.0000       2.510806        68.3225 
 757   0.0000       2.526973        68.7624 
 758   0.0000       2.529507        68.8314 
 759   0.0000       2.546820        69.3025 
 760   0.0000       2.548843        69.3575 
 761   0.0000       2.558736        69.6267 
 762   0.0000       2.566010        69.8247 
 763   0.0000       2.571021        69.9610 
 764   0.0000       2.583131        70.2906 
 765   0.0000       2.584393        70.3249 
 766   0.0000       2.588609        70.4396 
 767   0.0000       2.595609        70.6301 
 768   0.0000       2.602148        70.8080 
 769   0.0000       2.602419        70.8154 
 770   0.0000       2.606642        70.9303 
 771   0.0000       2.608291        70.9752 
 772   0.0000       2.615379        71.1681 
 773   0.0000       2.624283        71.4104 
 774   0.0000       2.625020        71.4304 
 775   0.0000       2.630566        71.5813 
 776   0.0000       2.635033        71.7029 
 777   0.0000       2.644041        71.9480 
 778   0.0000       2.647508        72.0423 
 779   0.0000       2.651014        72.1378 
 780   0.0000       2.661814        72.4316 
 781   0.0000       2.671350        72.6911 
 782   0.0000       2.674296        72.7713 
 783   0.0000       2.677163        72.8493 
 784   0.0000       2.681906        72.9784 
 785   0.0000       2.687787        73.1384 
 786   0.0000       2.696348        73.3714 
 787   0.0000       2.698902        73.4409 
 788   0.0000       2.727493        74.2188 
 789   0.0000       2.728357        74.2424 
 790   0.0000       2.737788        74.4990 
 791   0.0000       2.740612        74.5759 
 792   0.0000       2.746648        74.7401 
 793   0.0000       2.747173        74.7544 
 794   0.0000       2.747249        74.7564 
 795   0.0000       2.747570        74.7652 
 796   0.0000       2.748207        74.7825 
 797   0.0000       2.750373        74.8415 
 798   0.0000       2.750762        74.8520 
 799   0.0000       2.753137        74.9167 
 800   0.0000       2.760840        75.1263 
 801   0.0000       2.760898        75.1278 
 802   0.0000       2.768382        75.3315 
 803   0.0000       2.780785        75.6690 
 804   0.0000       2.781750        75.6953 
 805   0.0000       2.793024        76.0021 
 806   0.0000       2.793479        76.0144 
 807   0.0000       2.800747        76.2122 
 808   0.0000       2.809285        76.4445 
 809   0.0000       2.809841        76.4596 
 810   0.0000       2.831167        77.0400 
 811   0.0000       2.848416        77.5093 
 812   0.0000       2.855111        77.6915 
 813   0.0000       2.861586        77.8677 
 814   0.0000       2.879492        78.3550 
 815   0.0000       2.879717        78.3611 
 816   0.0000       2.883532        78.4649 
 817   0.0000       2.884236        78.4840 
 818   0.0000       2.896652        78.8219 
 819   0.0000       2.897879        78.8553 
 820   0.0000       2.900219        78.9190 
 821   0.0000       2.902705        78.9866 
 822   0.0000       2.909255        79.1649 
 823   0.0000       2.958348        80.5007 
 824   0.0000       2.961754        80.5934 
 825   0.0000       2.975057        80.9554 
 826   0.0000       2.977432        81.0200 
 827   0.0000       2.982003        81.1444 
 828   0.0000       2.986884        81.2773 
 829   0.0000       2.999043        81.6081 
 830   0.0000       3.046429        82.8975 
 831   0.0000       3.050373        83.0049 
 832   0.0000       3.059345        83.2490 
 833   0.0000       3.078482        83.7697 
 834   0.0000       3.099731        84.3480 
 835   0.0000       3.104088        84.4665 
 836   0.0000       3.104554        84.4792 
 837   0.0000       3.125673        85.0539 
 838   0.0000       3.128768        85.1381 
 839   0.0000       3.131007        85.1990 
 840   0.0000       3.132835        85.2488 
 841   0.0000       3.139688        85.4353 
 842   0.0000       3.142765        85.5190 
 843   0.0000       3.163000        86.0696 
 844   0.0000       3.190530        86.8187 
 845   0.0000       3.218851        87.5894 
 846   0.0000       3.281521        89.2947 
 847   0.0000       3.291346        89.5621 
 848   0.0000       3.306275        89.9683 
 849   0.0000       3.342225        90.9466 
 850   0.0000       3.344921        91.0199 
 851   0.0000       3.373335        91.7931 
 852   0.0000       3.378566        91.9355 
 853   0.0000       3.446243        93.7770 
 854   0.0000       3.449308        93.8604 
 855   0.0000       3.483030        94.7781 
 856   0.0000       3.575392        97.2914 
 857   0.0000       3.579163        97.3940 
 858   0.0000       3.611075        98.2623 
 859   0.0000       3.663382        99.6857 
 860   0.0000       3.664964        99.7287 
 861   0.0000       3.722700       101.2998 
 862   0.0000       3.722731       101.3007 
Total SCF time: 0 days 0 hours 1 min 19 sec 

Maximum memory used throughout the entire SCF-calculation: 280.3 MB


-------------------------------------------------------------------------------
                          DFT DISPERSION CORRECTION                            
                                                                               
                              DFTD3 V3.1  Rev 1                                
                          USING Becke-Johnson damping                          
-------------------------------------------------------------------------------
-------------------------   ----------------
Dispersion correction           -0.109732632
-------------------------   ----------------


-------------------------   --------------------
FINAL SINGLE POINT ENERGY     -2400.338571784038
-------------------------   --------------------

                                *** OPTIMIZATION RUN DONE ***

                            ***************************************
                            *     ORCA property calculations      *
                            ***************************************

                                    ---------------------
                                    Active property flags
                                    ---------------------
   (+) Dipole Moment


------------------------------------------------------------------------------
                       ORCA ELECTRIC PROPERTIES CALCULATION
------------------------------------------------------------------------------

Dipole Moment Calculation                       ... on
Quadrupole Moment Calculation                   ... off
Polarizability Calculation                      ... off
GBWName                                         ... /dev/shm/slurm.malcolms.9695294/9695294/freq/FREQ_OPT.gbw
Electron density                                ... /dev/shm/slurm.malcolms.9695294/9695294/freq/FREQ_OPT.scfp
The origin for moment calculation is the CENTER OF MASS  = (-0.004909, -0.003867 -0.048163)

-------------
DIPOLE MOMENT
-------------
                                X             Y             Z
Electronic contribution:      1.77088      -9.16335      -6.68978
Nuclear contribution   :     -1.81202       8.89953       6.49584
                        -----------------------------------------
Total Dipole Moment    :     -0.04113      -0.26382      -0.19393
                        -----------------------------------------
Magnitude (a.u.)       :      0.33000
Magnitude (Debye)      :      0.83880



--------------------
Rotational spectrum 
--------------------
 
Rotational constants in cm-1:     0.006334     0.000340     0.000329 
Rotational constants in MHz :   189.896022    10.193483     9.848807 

 Dipole components along the rotational axes: 
x,y,z [a.u.] :    -0.041247    -0.266618    -0.190042 
x,y,z [Debye]:    -0.104841    -0.677689    -0.483049 

 


           ************************************************************
           *        Program running with 40 parallel MPI-processes    *
           *              working on a common directory               *
           ************************************************************

-------------------------------------------------------------------------------
                               ORCA SCF HESSIAN
-------------------------------------------------------------------------------

                   --------- SHARK INITIALIZATION DONE ---------

Hessian of the Kohn-Sham DFT energy:
Kohn-Sham wavefunction type                      ... RKS
Hartree-Fock exchange scaling                    ...    0.250
Number of operators                              ...    1
Number of atoms                                  ...   80
Basis set dimensions                             ...  863
Integral neglect threshold                       ... 2.5e-11
Integral primitive cutoff                        ... 2.5e-12

Setting up DFT Hessian calculations              ... 

HESS GRID
---------

General Integration Accuracy     IntAcc      ... 4.959
Radial Grid Type                 RadialGrid  ... OptM3 with GC (2021)
Angular Grid (max. ang.)         AngularGrid ... 7 (Lebedev-770)
Angular grid pruning method      GridPruning ... 4 (adaptive)
Weight generation scheme         WeightScheme... Becke
Basis function cutoff            BFCut       ... 1.0000e-11
Integration weight cutoff        WCut        ... 1.0000e-14
Angular grids for H and He will be reduced by one unit
Partially contracted basis set               ... off
Rotationally invariant grid construction     ... off

Total number of grid points                  ...  1388862
Total number of batches                      ...    21741
Average number of points per batch           ...       63
Average number of grid points per atom       ...    17361

Building densities                               ... done   (      0.1 sec)
Calculating rho(r) on the grid                   ... done   (      0.7 sec)
Building xc-kernel on the grid                   ... done   (      0.2 sec)
                                                     done   (     22.0 sec)

Nuclear repulsion Hessian  (SHARK)               ... done   (      0.0 sec)

----------------------------------------------
Forming right-hand sides of CP-SCF equations     ...
----------------------------------------------
One electron integral derivatives  (SHARK)       ... done   (      0.3 sec)
Transforming the overlap derivative matrices     ... done   (      1.1 sec)
Making the Q(x) pseudodensities                  ... done   (      1.2 sec)
Adding the E*S(x)*S(y) terms to the Hessian      ... done   (      2.2 sec)
Calculating energy weighted overlap derivatives  ... done   (      0.4 sec)
Two electron integral derivatives (SHARK-RI)     ... done   (    140.8 sec)
Exchange-correlation integral derivatives        ... done   (     64.4 sec)
tr(F(y)Q(x)) contribution to the Hessian         ... done   (      1.1 sec)
Response fock operator R(S(x)) (SHARK-RIJCOSX)   ... 
ORCA finished by error termination in SCF Hessian
Calling Command: mpirun -np 40  /project/a/aspuru/orca/orca503/orca_scfhess_mpi /dev/shm/slurm.malcolms.9695294/9695294/freq/FREQ_OPT.scfhess.inp /dev/shm/slurm.malcolms.9695294/9695294/freq/FREQ_OPT 
[file orca_tools/qcmsg.cpp, line 465]: 
  .... aborting the run

