
                                 *****************
                                 * O   R   C   A *
                                 *****************

                                            #,                                       
                                            ###                                      
                                            ####                                     
                                            #####                                    
                                            ######                                   
                                           ########,                                 
                                     ,,################,,,,,                         
                               ,,#################################,,                 
                          ,,##########################################,,             
                       ,#########################################, ''#####,          
                    ,#############################################,,   '####,        
                  ,##################################################,,,,####,       
                ,###########''''           ''''###############################       
              ,#####''   ,,,,##########,,,,          '''####'''          '####       
            ,##' ,,,,###########################,,,                        '##       
           ' ,,###''''                  '''############,,,                           
         ,,##''                                '''############,,,,        ,,,,,,###''
      ,#''                                            '''#######################'''  
     '                                                          ''''####''''         
             ,#######,   #######,   ,#######,      ##                                
            ,#'     '#,  ##    ##  ,#'     '#,    #''#        ######   ,####,        
            ##       ##  ##   ,#'  ##            #'  '#       #        #'  '#        
            ##       ##  #######   ##           ,######,      #####,   #    #        
            '#,     ,#'  ##    ##  '#,     ,#' ,#      #,         ##   #,  ,#        
             '#######'   ##     ##  '#######'  #'      '#     #####' # '####'        



                  #######################################################
                  #                        -***-                        #
                  #          Department of theory and spectroscopy      #
                  #    Directorship and core code : Frank Neese         #
                  #        Max Planck Institute fuer Kohlenforschung    #
                  #                Kaiser Wilhelm Platz 1               #
                  #                 D-45470 Muelheim/Ruhr               #
                  #                      Germany                        #
                  #                                                     #
                  #                  All rights reserved                #
                  #                        -***-                        #
                  #######################################################


                         Program Version 5.0.3 -  RELEASE  -


 With contributions from (in alphabetic order):
   Daniel Aravena         : Magnetic Suceptibility
   Michael Atanasov       : Ab Initio Ligand Field Theory (pilot matlab implementation)
   Alexander A. Auer      : GIAO ZORA, VPT2 properties, NMR spectrum
   Ute Becker             : Parallelization
   Giovanni Bistoni       : ED, misc. LED, open-shell LED, HFLD
   Martin Brehm           : Molecular dynamics
   Dmytro Bykov           : SCF Hessian
   Vijay G. Chilkuri      : MRCI spin determinant printing, contributions to CSF-ICE
   Dipayan Datta          : RHF DLPNO-CCSD density
   Achintya Kumar Dutta   : EOM-CC, STEOM-CC
   Dmitry Ganyushin       : Spin-Orbit,Spin-Spin,Magnetic field MRCI
   Miquel Garcia          : C-PCM and meta-GGA Hessian, CC/C-PCM, Gaussian charge scheme
   Yang Guo               : DLPNO-NEVPT2, F12-NEVPT2, CIM, IAO-localization
   Andreas Hansen         : Spin unrestricted coupled pair/coupled cluster methods
   Benjamin Helmich-Paris : MC-RPA, TRAH-SCF, COSX integrals
   Lee Huntington         : MR-EOM, pCC
   Robert Izsak           : Overlap fitted RIJCOSX, COSX-SCS-MP3, EOM
   Marcus Kettner         : VPT2
   Christian Kollmar      : KDIIS, OOCD, Brueckner-CCSD(T), CCSD density, CASPT2, CASPT2-K
   Simone Kossmann        : Meta GGA functionals, TD-DFT gradient, OOMP2, MP2 Hessian
   Martin Krupicka        : Initial AUTO-CI
   Lucas Lang             : DCDCAS
   Marvin Lechner         : AUTO-CI (C++ implementation), FIC-MRCC
   Dagmar Lenk            : GEPOL surface, SMD
   Dimitrios Liakos       : Extrapolation schemes; Compound Job, initial MDCI parallelization
   Dimitrios Manganas     : Further ROCIS development; embedding schemes
   Dimitrios Pantazis     : SARC Basis sets
   Anastasios Papadopoulos: AUTO-CI, single reference methods and gradients
   Taras Petrenko         : DFT Hessian,TD-DFT gradient, ASA, ECA, R-Raman, ABS, FL, XAS/XES, NRVS
   Peter Pinski           : DLPNO-MP2, DLPNO-MP2 Gradient
   Christoph Reimann      : Effective Core Potentials
   Marius Retegan         : Local ZFS, SOC
   Christoph Riplinger    : Optimizer, TS searches, QM/MM, DLPNO-CCSD(T), (RO)-DLPNO pert. Triples
   Tobias Risthaus        : Range-separated hybrids, TD-DFT gradient, RPA, STAB
   Michael Roemelt        : Original ROCIS implementation
   Masaaki Saitow         : Open-shell DLPNO-CCSD energy and density
   Barbara Sandhoefer     : DKH picture change effects
   Avijit Sen             : IP-ROCIS
   Kantharuban Sivalingam : CASSCF convergence, NEVPT2, FIC-MRCI
   Bernardo de Souza      : ESD, SOC TD-DFT
   Georgi Stoychev        : AutoAux, RI-MP2 NMR, DLPNO-MP2 response
   Willem Van den Heuvel  : Paramagnetic NMR
   Boris Wezisla          : Elementary symmetry handling
   Frank Wennmohs         : Technical directorship


 We gratefully acknowledge several colleagues who have allowed us to
 interface, adapt or use parts of their codes:
   Stefan Grimme, W. Hujo, H. Kruse, P. Pracht,  : VdW corrections, initial TS optimization,
                  C. Bannwarth, S. Ehlert          DFT functionals, gCP, sTDA/sTD-DF
   Ed Valeev, F. Pavosevic, A. Kumar             : LibInt (2-el integral package), F12 methods
   Garnet Chan, S. Sharma, J. Yang, R. Olivares  : DMRG
   Ulf Ekstrom                                   : XCFun DFT Library
   Mihaly Kallay                                 : mrcc  (arbitrary order and MRCC methods)
   Jiri Pittner, Ondrej Demel                    : Mk-CCSD
   Frank Weinhold                                : gennbo (NPA and NBO analysis)
   Christopher J. Cramer and Donald G. Truhlar   : smd solvation model
   Lars Goerigk                                  : TD-DFT with DH, B97 family of functionals
   V. Asgeirsson, H. Jonsson                     : NEB implementation
   FAccTs GmbH                                   : IRC, NEB, NEB-TS, DLPNO-Multilevel, CI-OPT
                                                   MM, QMMM, 2- and 3-layer-ONIOM, Crystal-QMMM,
                                                   LR-CPCM, SF, NACMEs, symmetry and pop. for TD-DFT,
                                                   nearIR, NL-DFT gradient (VV10), updates on ESD,
                                                   ML-optimized integration grids
   S Lehtola, MJT Oliveira, MAL Marques          : LibXC Library
   Liviu Ungur et al                             : ANISO software


 Your calculation uses the libint2 library for the computation of 2-el integrals
 For citations please refer to: http://libint.valeyev.net

 Your ORCA version has been built with support for libXC version: 5.1.0
 For citations please refer to: https://tddft.org/programs/libxc/

 This ORCA versions uses:
   CBLAS   interface :  Fast vector & matrix operations
   LAPACKE interface :  Fast linear algebra routines
   SCALAPACK package :  Parallel linear algebra routines
   Shared memory     :  Shared parallel matrices
   BLAS/LAPACK       :  OpenBLAS 0.3.15  USE64BITINT DYNAMIC_ARCH NO_AFFINITY SkylakeX SINGLE_THREADED
        Core in use  :  SkylakeX
   Copyright (c) 2011-2014, The OpenBLAS Project




***************************************
The coordinates will be read from file: S0_XTB.xyz
***************************************


Your calculation utilizes the atom-pairwise dispersion correction
with the Becke-Johnson damping scheme (D3BJ)
Cite in your paper:
S.Grimme, S.Ehrlich, L.Goerigk, J Comput Chem, (2011), 32, 1456–1465 
S.Grimme, J.Antony, S.Ehrlich and H.Krieg, J.Chem.Phys., 132, (2010), 154104 
   

================================================================================

----- Orbital basis set information -----
Your calculation utilizes the basis: def2-SVP
   F. Weigend and R. Ahlrichs, Phys. Chem. Chem. Phys. 7, 3297 (2005).

----- AuxJ basis set information -----
Your calculation utilizes the auxiliary basis: def2/J
   F. Weigend, Phys. Chem. Chem. Phys. 8, 1057 (2006).

================================================================================
                                        WARNINGS
                       Please study these warnings very carefully!
================================================================================


INFO   : the flag for use of the SHARK integral package has been found!

================================================================================
                                       INPUT FILE
================================================================================
NAME = /dev/shm/slurm.malcolms.9849014/9849014/freq/FREQ_OPT.inp
|  1> ! PBE0 def2-SVP D3BJ def2/J RIJCOSX tightSCF noautostart miniprint nopop defgrid3 Opt Freq
|  2> %maxcore    4000
|  3> %pal    nprocs  40  end
|  4> * xyzfile 0 1 S0_XTB.xyz
|  5> 
|  6> 
|  7>                          ****END OF INPUT****
================================================================================

                       *****************************
                       * Geometry Optimization Run *
                       *****************************

Geometry optimization settings:
Update method            Update   .... BFGS
Choice of coordinates    CoordSys .... Z-matrix Internals
Initial Hessian          InHess   .... Almoef's Model

Convergence Tolerances:
Energy Change            TolE     ....  5.0000e-06 Eh
Max. Gradient            TolMAXG  ....  3.0000e-04 Eh/bohr
RMS Gradient             TolRMSG  ....  1.0000e-04 Eh/bohr
Max. Displacement        TolMAXD  ....  4.0000e-03 bohr
RMS Displacement         TolRMSD  ....  2.0000e-03 bohr
Strict Convergence                ....  False
------------------------------------------------------------------------------
                        ORCA OPTIMIZATION COORDINATE SETUP
------------------------------------------------------------------------------

The optimization will be done in new redundant internal coordinates
Making redundant internal coordinates   ...  (new redundants) done
Evaluating the initial hessian          ...  (Almloef) done
Evaluating the coordinates              ...  done
Calculating the B-matrix                .... done
Calculating the G-matrix                .... done
Diagonalizing the G-matrix              .... done
Small eigenvalue found = 1.364e-04
Small eigenvalue found = 1.005e-03
Small eigenvalue found = 2.754e-03
Small eigenvalue found = 3.695e-03
Small eigenvalue found = 5.026e-03
Small eigenvalue found = 5.434e-03
Small eigenvalue found = 1.024e-02
Small eigenvalue found = 1.244e-02
Small eigenvalue found = 1.621e-02
Small eigenvalue found = 1.746e-02
Small eigenvalue found = 1.974e-02
Small eigenvalue found = 2.086e-02
Small eigenvalue found = 2.812e-02
The first mode is                       ....  269
The number of degrees of freedom        ....  285

    -----------------------------------------------------------------
                    Redundant Internal Coordinates


    -----------------------------------------------------------------
         Definition                    Initial Value    Approx d2E/dq
    -----------------------------------------------------------------
      1. B(C   1,C   0)                  1.3420         0.745380   
      2. B(C   2,C   1)                  1.4498         0.501528   
      3. B(C   3,C   2)                  1.4011         0.599762   
      4. B(C   4,C   3)                  1.3818         0.643802   
      5. B(C   5,C   4)                  1.3850         0.636270   
      6. B(C   6,C   5)                  1.3970         0.608980   
      7. B(C   7,C   6)                  1.4771         0.453717   
      8. B(C   8,C   7)                  1.3966         0.609934   
      9. B(C   9,C   8)                  1.3836         0.639741   
     10. B(C  10,C   9)                  1.3840         0.638726   
     11. B(C  11,C  10)                  1.3970         0.608838   
     12. B(C  12,C  11)                  1.4756         0.456265   
     13. B(C  13,C  12)                  1.3978         0.607100   
     14. B(C  14,C  13)                  1.3851         0.636050   
     15. B(C  15,C  14)                  1.3817         0.644236   
     16. B(C  16,C  15)                  1.4011         0.599778   
     17. B(C  17,C  16)                  1.4513         0.498845   
     18. B(C  18,C  17)                  1.3402         0.750175   
     19. B(C  19,C  18)                  1.4504         0.500512   
     20. B(C  20,C  19)                  1.3973         0.608357   
     21. B(C  21,C  20)                  1.3797         0.648815   
     22. B(C  22,C  21)                  1.3927         0.618559   
     23. B(N  23,C  22)                  1.3993         0.540801   
     24. B(C  24,N  23)                  1.3828         0.574495   
     25. B(C  25,C  24)                  1.3877         0.630165   
     26. B(C  26,C  25)                  1.3810         0.645895   
     27. B(C  27,C  26)                  1.3924         0.619271   
     28. B(C  28,C  27)                  1.3798         0.648668   
     29. B(C  29,C  28)                  1.3881         0.629059   
     30. B(C  29,C  24)                  1.4126         0.574999   
     31. B(C  30,C  29)                  1.4350         0.529595   
     32. B(C  31,C  30)                  1.3877         0.630191   
     33. B(C  32,C  31)                  1.3801         0.647900   
     34. B(C  33,C  32)                  1.3926         0.618808   
     35. B(C  34,C  33)                  1.3817         0.644058   
     36. B(C  35,C  34)                  1.3871         0.631422   
     37. B(C  35,C  30)                  1.4133         0.573498   
     38. B(C  35,N  23)                  1.3821         0.576174   
     39. B(C  36,C  22)                  1.3944         0.614729   
     40. B(C  37,C  36)                  1.3770         0.655429   
     41. B(C  37,C  19)                  1.3976         0.607570   
     42. B(N  38,C  16)                  1.3289         0.700525   
     43. B(N  38,C  12)                  1.3230         0.715739   
     44. B(N  39,C  11)                  1.3255         0.709169   
     45. B(N  39,C   7)                  1.3227         0.716538   
     46. B(N  40,C   6)                  1.3213         0.720345   
     47. B(N  40,C   2)                  1.3309         0.695303   
     48. B(C  41,C   0)                  1.4469         0.506884   
     49. B(C  42,C  41)                  1.3989         0.604805   
     50. B(C  43,C  42)                  1.3789         0.650696   
     51. B(C  44,C  43)                  1.3930         0.617928   
     52. B(N  45,C  44)                  1.3975         0.544448   
     53. B(C  46,N  45)                  1.3835         0.573091   
     54. B(C  47,C  46)                  1.3877         0.630129   
     55. B(C  48,C  47)                  1.3810         0.645826   
     56. B(C  49,C  48)                  1.3923         0.619516   
     57. B(C  50,C  49)                  1.3798         0.648597   
     58. B(C  51,C  50)                  1.3881         0.629228   
     59. B(C  51,C  46)                  1.4124         0.575467   
     60. B(C  52,C  51)                  1.4351         0.529472   
     61. B(C  53,C  52)                  1.3876         0.630236   
     62. B(C  54,C  53)                  1.3801         0.648003   
     63. B(C  55,C  54)                  1.3925         0.619189   
     64. B(C  56,C  55)                  1.3818         0.643934   
     65. B(C  57,C  56)                  1.3872         0.631320   
     66. B(C  57,C  52)                  1.4132         0.573801   
     67. B(C  57,N  45)                  1.3826         0.574980   
     68. B(C  58,C  44)                  1.3953         0.612856   
     69. B(C  59,C  58)                  1.3762         0.657341   
     70. B(C  59,C  41)                  1.3989         0.604757   
     71. B(H  60,C   0)                  1.0821         0.370654   
     72. B(H  61,C   1)                  1.0812         0.371899   
     73. B(H  62,C   3)                  1.0799         0.373759   
     74. B(H  63,C   4)                  1.0812         0.371931   
     75. B(H  64,C   5)                  1.0791         0.374827   
     76. B(H  65,C   8)                  1.0793         0.374590   
     77. B(H  66,C   9)                  1.0812         0.371980   
     78. B(H  67,C  10)                  1.0788         0.375196   
     79. B(H  68,C  13)                  1.0786         0.375437   
     80. B(H  69,C  14)                  1.0812         0.371898   
     81. B(H  70,C  15)                  1.0798         0.373881   
     82. B(H  71,C  17)                  1.0819         0.370990   
     83. B(H  72,H  60)                  2.9737         0.000068   
     84. B(H  72,C  18)                  1.0820         0.370788   
     85. B(H  73,C  20)                  1.0802         0.373319   
     86. B(H  74,C  21)                  1.0792         0.374683   
     87. B(H  75,C  25)                  1.0796         0.374134   
     88. B(H  76,C  26)                  1.0798         0.373901   
     89. B(H  77,C  27)                  1.0796         0.374065   
     90. B(H  78,C  28)                  1.0794         0.374373   
     91. B(H  79,C  31)                  1.0793         0.374507   
     92. B(H  80,C  32)                  1.0800         0.373530   
     93. B(H  81,C  33)                  1.0804         0.373044   
     94. B(H  82,C  34)                  1.0794         0.374357   
     95. B(H  83,C  36)                  1.0800         0.373595   
     96. B(H  84,C  37)                  1.0793         0.374525   
     97. B(H  85,C  42)                  1.0802         0.373306   
     98. B(H  86,H  75)                  2.4755         0.000425   
     99. B(H  86,C  43)                  1.0788         0.375158   
    100. B(H  87,H  74)                  2.5961         0.000273   
    101. B(H  87,C  47)                  1.0794         0.374356   
    102. B(H  88,C  48)                  1.0797         0.373982   
    103. B(H  89,H  79)                  3.1473         0.000036   
    104. B(H  89,C  49)                  1.0797         0.373972   
    105. B(H  90,C  50)                  1.0795         0.374283   
    106. B(H  91,H  77)                  3.1630         0.000034   
    107. B(H  91,C  53)                  1.0794         0.374440   
    108. B(H  92,C  54)                  1.0800         0.373547   
    109. B(H  93,C  55)                  1.0804         0.373081   
    110. B(H  94,C  56)                  1.0793         0.374601   
    111. B(H  95,C  58)                  1.0799         0.373721   
    112. B(H  96,C  59)                  1.0788         0.375214   
    113. A(C   1,C   0,H  60)          117.0626         0.365948   
    114. A(C  41,C   0,H  60)          116.4645         0.342801   
    115. A(C   1,C   0,C  41)          126.4719         0.432720   
    116. A(C   0,C   1,C   2)          122.8794         0.431895   
    117. A(C   2,C   1,H  61)          115.3044         0.342384   
    118. A(C   0,C   1,H  61)          121.8153         0.366158   
    119. A(C   1,C   2,N  40)          117.7913         0.423762   
    120. A(C   1,C   2,C   3)          120.5461         0.415434   
    121. A(C   3,C   2,N  40)          121.6625         0.437594   
    122. A(C   4,C   3,H  62)          120.8660         0.357421   
    123. A(C   2,C   3,C   4)          118.8606         0.434416   
    124. A(C   2,C   3,H  62)          120.2733         0.353151   
    125. A(C   5,C   4,H  63)          120.4093         0.356410   
    126. A(C   3,C   4,H  63)          120.5494         0.357123   
    127. A(C   3,C   4,C   5)          119.0412         0.439067   
    128. A(C   4,C   5,H  64)          120.9776         0.356880   
    129. A(C   6,C   5,H  64)          120.7316         0.354235   
    130. A(C   4,C   5,C   6)          118.2754         0.434689   
    131. A(C   5,C   6,N  40)          122.6404         0.441612   
    132. A(C   5,C   6,C   7)          120.9163         0.409219   
    133. A(C   7,C   6,N  40)          116.4433         0.418888   
    134. A(C   6,C   7,N  39)          116.6612         0.418493   
    135. A(C   6,C   7,C   8)          120.8678         0.409332   
    136. A(C   8,C   7,N  39)          122.4686         0.441314   
    137. A(C   9,C   8,H  65)          120.9535         0.357172   
    138. A(C   7,C   8,C   9)          118.2727         0.435238   
    139. A(C   7,C   8,H  65)          120.7484         0.354291   
    140. A(C   8,C   9,C  10)          119.1327         0.438871   
    141. A(C  10,C   9,H  66)          120.3990         0.356651   
    142. A(C   8,C   9,H  66)          120.4670         0.356748   
    143. A(C   9,C  10,H  67)          120.4112         0.357174   
    144. A(C   9,C  10,C  11)          118.5378         0.434972   
    145. A(C  11,C  10,H  67)          121.0338         0.354280   
    146. A(C  10,C  11,N  39)          122.0850         0.440347   
    147. A(C  10,C  11,C  12)          121.7406         0.409608   
    148. A(C  12,C  11,N  39)          116.1678         0.418140   
    149. A(C  13,C  12,N  38)          122.2508         0.440854   
    150. A(C  11,C  12,N  38)          116.0083         0.418827   
    151. A(C  11,C  12,C  13)          121.7407         0.409400   
    152. A(C  12,C  13,C  14)          118.3999         0.434420   
    153. A(C  14,C  13,H  68)          120.4871         0.356958   
    154. A(C  12,C  13,H  68)          121.1036         0.354147   
    155. A(C  13,C  14,H  69)          120.3191         0.356384   
    156. A(C  13,C  14,C  15)          119.1427         0.439093   
    157. A(C  15,C  14,H  69)          120.5382         0.357159   
    158. A(C  14,C  15,H  70)          120.9770         0.357482   
    159. A(C  14,C  15,C  16)          118.6718         0.434471   
    160. A(C  16,C  15,H  70)          120.3445         0.353172   
    161. A(C  17,C  16,N  38)          117.6381         0.423923   
    162. A(C  15,C  16,N  38)          121.7427         0.438187   
    163. A(C  15,C  16,C  17)          120.6181         0.415040   
    164. A(C  16,C  17,H  71)          115.6647         0.341936   
    165. A(C  16,C  17,C  18)          123.0076         0.431976   
    166. A(C  18,C  17,H  71)          121.2975         0.366407   
    167. A(C  19,C  18,H  72)          117.1519         0.342096   
    168. A(C  17,C  18,H  72)          117.7470         0.366372   
    169. A(C  17,C  18,C  19)          125.0891         0.432235   
    170. A(C  20,C  19,C  37)          117.9817         0.431017   
    171. A(C  18,C  19,C  37)          121.8535         0.416241   
    172. A(C  18,C  19,C  20)          120.1585         0.416337   
    173. A(C  19,C  20,H  73)          119.1353         0.353932   
    174. A(C  21,C  20,H  73)          119.6459         0.357821   
    175. A(C  19,C  20,C  21)          121.2185         0.436140   
    176. A(C  20,C  21,C  22)          120.2112         0.437449   
    177. A(C  22,C  21,H  74)          119.6493         0.355151   
    178. A(C  20,C  21,H  74)          120.1093         0.358043   
    179. A(N  23,C  22,C  36)          119.5447         0.420162   
    180. A(C  21,C  22,C  36)          119.0687         0.433218   
    181. A(C  21,C  22,N  23)          121.3864         0.420628   
    182. A(C  22,N  23,C  24)          125.2465         0.412443   
    183. A(C  24,N  23,C  35)          108.2161         0.417115   
    184. A(C  22,N  23,C  35)          126.1749         0.412657   
    185. A(C  25,C  24,C  29)          120.8305         0.429482   
    186. A(N  23,C  24,C  29)          109.3806         0.419685   
    187. A(N  23,C  24,C  25)          129.7363         0.426613   
    188. A(C  24,C  25,C  26)          118.0144         0.438561   
    189. A(C  26,C  25,H  75)          120.5938         0.357679   
    190. A(C  24,C  25,H  75)          121.3916         0.356184   
    191. A(C  25,C  26,C  27)          121.4383         0.437184   
    192. A(C  27,C  26,H  76)          119.3122         0.355094   
    193. A(C  25,C  26,H  76)          119.2468         0.357641   
    194. A(C  26,C  27,C  28)          120.8825         0.437522   
    195. A(C  28,C  27,H  77)          119.9496         0.357929   
    196. A(C  26,C  27,H  77)          119.1650         0.355121   
    197. A(C  27,C  28,C  29)          118.6673         0.438761   
    198. A(C  29,C  28,H  78)          120.2678         0.356117   
    199. A(C  27,C  28,H  78)          121.0644         0.357979   
    200. A(C  24,C  29,C  28)          120.1343         0.429346   
    201. A(C  28,C  29,C  30)          133.3673         0.423069   
    202. A(C  24,C  29,C  30)          106.4981         0.416343   
    203. A(C  31,C  30,C  35)          120.1459         0.429284   
    204. A(C  29,C  30,C  35)          106.5985         0.416149   
    205. A(C  29,C  30,C  31)          133.2506         0.423205   
    206. A(C  30,C  31,C  32)          118.6390         0.438809   
    207. A(C  32,C  31,H  79)          121.0295         0.357929   
    208. A(C  30,C  31,H  79)          120.3311         0.356247   
    209. A(C  31,C  32,C  33)          120.8568         0.437369   
    210. A(C  33,C  32,H  80)          119.2602         0.354989   
    211. A(C  31,C  32,H  80)          119.8804         0.357770   
    212. A(C  34,C  33,H  81)          119.1818         0.357329   
    213. A(C  32,C  33,C  34)          121.5406         0.436901   
    214. A(C  32,C  33,H  81)          119.2765         0.354911   
    215. A(C  33,C  34,C  35)          117.8684         0.438493   
    216. A(C  33,C  34,H  82)          120.7435         0.357542   
    217. A(C  35,C  34,H  82)          121.3820         0.356341   
    218. A(N  23,C  35,C  30)          109.3051         0.419707   
    219. A(C  30,C  35,C  34)          120.9274         0.429434   
    220. A(N  23,C  35,C  34)          129.7109         0.426989   
    221. A(C  22,C  36,C  37)          120.4261         0.437759   
    222. A(C  37,C  36,H  83)          120.2402         0.358484   
    223. A(C  22,C  36,H  83)          119.3296         0.354602   
    224. A(C  19,C  37,C  36)          121.0860         0.436835   
    225. A(C  36,C  37,H  84)          119.1811         0.358636   
    226. A(C  19,C  37,H  84)          119.7253         0.354048   
    227. A(C  12,N  38,C  16)          119.7537         0.449449   
    228. A(C   7,N  39,C  11)          119.4899         0.450542   
    229. A(C   2,N  40,C   6)          119.5188         0.449362   
    230. A(C  42,C  41,C  59)          117.6764         0.430206   
    231. A(C   0,C  41,C  59)          122.8981         0.416834   
    232. A(C   0,C  41,C  42)          119.4216         0.416840   
    233. A(C  43,C  42,H  85)          119.4646         0.357995   
    234. A(C  41,C  42,H  85)          119.0951         0.353579   
    235. A(C  41,C  42,C  43)          121.4304         0.435907   
    236. A(C  44,C  43,H  86)          119.6482         0.355165   
    237. A(C  42,C  43,H  86)          120.1023         0.358297   
    238. A(C  42,C  43,C  44)          120.2232         0.437597   
    239. A(N  45,C  44,C  58)          119.6229         0.420437   
    240. A(C  43,C  44,C  58)          118.9072         0.432901   
    241. A(C  43,C  44,N  45)          121.4700         0.421056   
    242. A(C  46,N  45,C  57)          108.2171         0.416780   
    243. A(C  44,N  45,C  57)          126.3679         0.412998   
    244. A(C  44,N  45,C  46)          125.1654         0.412756   
    245. A(C  47,C  46,C  51)          120.7918         0.429540   
    246. A(N  45,C  46,C  51)          109.3595         0.419562   
    247. A(N  45,C  46,C  47)          129.7929         0.426422   
    248. A(C  48,C  47,H  87)          120.4943         0.357709   
    249. A(C  46,C  47,H  87)          121.4844         0.356217   
    250. A(C  46,C  47,C  48)          118.0200         0.438548   
    251. A(C  49,C  48,H  88)          119.3358         0.355131   
    252. A(C  47,C  48,H  88)          119.2100         0.357648   
    253. A(C  47,C  48,C  49)          121.4505         0.437207   
    254. A(C  50,C  49,H  89)          119.9504         0.357907   
    255. A(C  48,C  49,H  89)          119.1854         0.355129   
    256. A(C  48,C  49,C  50)          120.8604         0.437544   
    257. A(C  49,C  50,H  90)          121.0617         0.357958   
    258. A(C  51,C  50,H  90)          120.2771         0.356118   
    259. A(C  49,C  50,C  51)          118.6610         0.438774   
    260. A(C  50,C  51,C  52)          133.3136         0.423071   
    261. A(C  46,C  51,C  52)          106.5190         0.416386   
    262. A(C  46,C  51,C  50)          120.1671         0.429430   
    263. A(C  53,C  52,C  57)          120.1937         0.429330   
    264. A(C  51,C  52,C  57)          106.6229         0.416171   
    265. A(C  51,C  52,C  53)          133.1790         0.423193   
    266. A(C  52,C  53,C  54)          118.6445         0.438828   
    267. A(C  54,C  53,H  91)          121.0246         0.357927   
    268. A(C  52,C  53,H  91)          120.3305         0.356240   
    269. A(C  53,C  54,C  55)          120.8195         0.437430   
    270. A(C  55,C  54,H  92)          119.2767         0.355029   
    271. A(C  53,C  54,H  92)          119.9004         0.357782   
    272. A(C  54,C  55,C  56)          121.5552         0.436934   
    273. A(C  56,C  55,H  93)          119.1651         0.357323   
    274. A(C  54,C  55,H  93)          119.2786         0.354954   
    275. A(C  55,C  56,C  57)          117.9025         0.438465   
    276. A(C  57,C  56,H  94)          121.4573         0.356370   
    277. A(C  55,C  56,H  94)          120.6335         0.357570   
    278. A(C  52,C  57,C  56)          120.8519         0.429462   
    279. A(N  45,C  57,C  56)          129.8014         0.426818   
    280. A(N  45,C  57,C  52)          109.2811         0.419592   
    281. A(C  44,C  58,C  59)          120.5479         0.437748   
    282. A(C  59,C  58,H  95)          120.1489         0.358682   
    283. A(C  44,C  58,H  95)          119.2975         0.354439   
    284. A(C  41,C  59,C  58)          121.1807         0.436700   
    285. A(C  58,C  59,H  96)          118.7852         0.358926   
    286. A(C  41,C  59,H  96)          120.0338         0.353880   
    287. D(H  61,C   1,C   0,C  41)     -0.9565         0.039575   
    288. D(C   2,C   1,C   0,H  60)     -0.2165         0.039575   
    289. D(H  61,C   1,C   0,H  60)    179.4192         0.039575   
    290. D(C   2,C   1,C   0,C  41)    179.4077         0.039575   
    291. D(C   3,C   2,C   1,H  61)     -1.6152         0.017134   
    292. D(N  40,C   2,C   1,H  61)    178.4888         0.017134   
    293. D(C   3,C   2,C   1,C   0)    178.0424         0.017134   
    294. D(N  40,C   2,C   1,C   0)     -1.8536         0.017134   
    295. D(H  62,C   3,C   2,C   1)      0.1488         0.024797   
    296. D(H  62,C   3,C   2,N  40)   -179.9592         0.024797   
    297. D(C   4,C   3,C   2,N  40)     -0.0630         0.024797   
    298. D(C   4,C   3,C   2,C   1)   -179.9549         0.024797   
    299. D(C   5,C   4,C   3,H  62)   -179.7861         0.028821   
    300. D(C   5,C   4,C   3,C   2)      0.3183         0.028821   
    301. D(H  63,C   4,C   3,H  62)      0.3035         0.028821   
    302. D(H  63,C   4,C   3,C   2)   -179.5921         0.028821   
    303. D(H  64,C   5,C   4,C   3)   -178.8863         0.028106   
    304. D(H  64,C   5,C   4,H  63)      1.0242         0.028106   
    305. D(C   6,C   5,C   4,H  63)    179.6056         0.028106   
    306. D(C   6,C   5,C   4,C   3)     -0.3049         0.028106   
    307. D(N  40,C   6,C   5,C   4)      0.0353         0.025608   
    308. D(C   7,C   6,C   5,H  64)     -1.3315         0.025608   
    309. D(N  40,C   6,C   5,H  64)    178.6204         0.025608   
    310. D(C   7,C   6,C   5,C   4)   -179.9165         0.025608   
    311. D(N  39,C   7,C   6,N  40)    -40.5663         0.014029   
    312. D(N  39,C   7,C   6,C   5)    139.3884         0.014029   
    313. D(C   8,C   7,C   6,N  40)    138.8914         0.014029   
    314. D(C   8,C   7,C   6,C   5)    -41.1539         0.014029   
    315. D(H  65,C   8,C   7,C   6)     -0.3132         0.025693   
    316. D(C   9,C   8,C   7,C   6)   -178.4962         0.025693   
    317. D(C   9,C   8,C   7,N  39)      0.9293         0.025693   
    318. D(H  65,C   8,C   7,N  39)    179.1123         0.025693   
    319. D(C  10,C   9,C   8,C   7)     -0.8620         0.028434   
    320. D(H  66,C   9,C   8,H  65)      0.5342         0.028434   
    321. D(H  66,C   9,C   8,C   7)    178.7133         0.028434   
    322. D(C  10,C   9,C   8,H  65)   -179.0411         0.028434   
    323. D(H  67,C  10,C   9,H  66)     -1.1098         0.028338   
    324. D(H  67,C  10,C   9,C   8)    178.4657         0.028338   
    325. D(C  11,C  10,C   9,C   8)     -0.0420         0.028338   
    326. D(C  11,C  10,C   9,H  66)   -179.6175         0.028338   
    327. D(N  39,C  11,C  10,H  67)   -177.5026         0.025595   
    328. D(N  39,C  11,C  10,C   9)      0.9954         0.025595   
    329. D(C  12,C  11,C  10,H  67)      1.5259         0.025595   
    330. D(C  12,C  11,C  10,C   9)   -179.9760         0.025595   
    331. D(N  38,C  12,C  11,N  39)     26.7548         0.014184   
    332. D(N  38,C  12,C  11,C  10)   -152.3282         0.014184   
    333. D(C  13,C  12,C  11,N  39)   -153.0754         0.014184   
    334. D(C  13,C  12,C  11,C  10)     27.8416         0.014184   
    335. D(H  68,C  13,C  12,N  38)   -177.1779         0.025441   
    336. D(H  68,C  13,C  12,C  11)      2.6416         0.025441   
    337. D(C  14,C  13,C  12,N  38)      1.7136         0.025441   
    338. D(C  14,C  13,C  12,C  11)   -178.4669         0.025441   
    339. D(H  69,C  14,C  13,H  68)     -1.3839         0.028085   
    340. D(H  69,C  14,C  13,C  12)    179.7175         0.028085   
    341. D(C  15,C  14,C  13,H  68)    178.5836         0.028085   
    342. D(C  15,C  14,C  13,C  12)     -0.3150         0.028085   
    343. D(H  70,C  15,C  14,H  69)     -0.4578         0.028862   
    344. D(H  70,C  15,C  14,C  13)    179.5747         0.028862   
    345. D(C  16,C  15,C  14,H  69)    178.6033         0.028862   
    346. D(C  16,C  15,C  14,C  13)     -1.3642         0.028862   
    347. D(N  38,C  16,C  15,C  14)      1.8470         0.024798   
    348. D(C  17,C  16,C  15,H  70)      0.5206         0.024798   
    349. D(C  17,C  16,C  15,C  14)   -178.5466         0.024798   
    350. D(N  38,C  16,C  15,H  70)   -179.0858         0.024798   
    351. D(H  71,C  17,C  16,N  38)    169.4869         0.016949   
    352. D(H  71,C  17,C  16,C  15)    -10.1352         0.016949   
    353. D(C  18,C  17,C  16,N  38)    -12.4910         0.016949   
    354. D(C  18,C  17,C  16,C  15)    167.8868         0.016949   
    355. D(H  72,C  18,C  17,H  71)    175.8745         0.040135   
    356. D(H  72,C  18,C  17,C  16)     -2.0390         0.040135   
    357. D(C  19,C  18,C  17,H  71)     -2.8230         0.040135   
    358. D(C  19,C  18,C  17,C  16)    179.2635         0.040135   
    359. D(C  37,C  19,C  18,H  72)    157.0646         0.017064   
    360. D(C  20,C  19,C  18,H  72)    -22.0091         0.017064   
    361. D(C  20,C  19,C  18,C  17)    156.6954         0.017064   
    362. D(C  37,C  19,C  18,C  17)    -24.2309         0.017064   
    363. D(H  73,C  20,C  19,C  37)   -179.9309         0.025553   
    364. D(H  73,C  20,C  19,C  18)     -0.8219         0.025553   
    365. D(C  21,C  20,C  19,C  37)     -0.1112         0.025553   
    366. D(C  21,C  20,C  19,C  18)    178.9978         0.025553   
    367. D(H  74,C  21,C  20,H  73)      1.2889         0.029303   
    368. D(H  74,C  21,C  20,C  19)   -178.5299         0.029303   
    369. D(C  22,C  21,C  20,H  73)    179.2831         0.029303   
    370. D(C  22,C  21,C  20,C  19)     -0.5357         0.029303   
    371. D(C  36,C  22,C  21,H  74)    179.0454         0.026468   
    372. D(C  36,C  22,C  21,C  20)      1.0419         0.026468   
    373. D(N  23,C  22,C  21,H  74)     -0.7921         0.026468   
    374. D(N  23,C  22,C  21,C  20)   -178.7956         0.026468   
    375. D(C  35,N  23,C  22,C  36)    128.3748         0.023270   
    376. D(C  35,N  23,C  22,C  21)    -51.7885         0.023270   
    377. D(C  24,N  23,C  22,C  36)    -43.8873         0.023270   
    378. D(C  24,N  23,C  22,C  21)    135.9494         0.023270   
    379. D(C  29,C  24,N  23,C  35)      0.1160         0.026439   
    380. D(C  29,C  24,N  23,C  22)    173.5459         0.026439   
    381. D(C  25,C  24,N  23,C  35)    177.4459         0.026439   
    382. D(C  25,C  24,N  23,C  22)     -9.1243         0.026439   
    383. D(H  75,C  25,C  24,C  29)    177.8668         0.027535   
    384. D(H  75,C  25,C  24,N  23)      0.8004         0.027535   
    385. D(C  26,C  25,C  24,C  29)     -1.9381         0.027535   
    386. D(C  26,C  25,C  24,N  23)   -179.0045         0.027535   
    387. D(H  76,C  26,C  25,H  75)      0.2109         0.029021   
    388. D(H  76,C  26,C  25,C  24)   -179.9826         0.029021   
    389. D(C  27,C  26,C  25,H  75)   -179.1811         0.029021   
    390. D(C  27,C  26,C  25,C  24)      0.6254         0.029021   
    391. D(H  77,C  27,C  26,H  76)      0.7741         0.026533   
    392. D(H  77,C  27,C  26,C  25)   -179.8343         0.026533   
    393. D(C  28,C  27,C  26,H  76)   -178.6033         0.026533   
    394. D(C  28,C  27,C  26,C  25)      0.7883         0.026533   
    395. D(H  78,C  28,C  27,H  77)     -0.4951         0.029288   
    396. D(H  78,C  28,C  27,C  26)    178.8774         0.029288   
    397. D(C  29,C  28,C  27,H  77)    179.7666         0.029288   
    398. D(C  29,C  28,C  27,C  26)     -0.8608         0.029288   
    399. D(C  30,C  29,C  28,H  78)     -0.4255         0.027432   
    400. D(C  30,C  29,C  28,C  27)    179.3149         0.027432   
    401. D(C  24,C  29,C  28,H  78)    179.8107         0.027432   
    402. D(C  24,C  29,C  28,C  27)     -0.4489         0.027432   
    403. D(C  30,C  29,C  24,C  25)   -177.9360         0.022697   
    404. D(C  30,C  29,C  24,N  23)     -0.3271         0.022697   
    405. D(C  28,C  29,C  24,C  25)      1.8849         0.022697   
    406. D(C  28,C  29,C  24,N  23)    179.4938         0.022697   
    407. D(C  35,C  30,C  29,C  28)   -179.3807         0.019144   
    408. D(C  35,C  30,C  29,C  24)      0.4062         0.019144   
    409. D(C  31,C  30,C  29,C  28)      1.4530         0.019144   
    410. D(C  31,C  30,C  29,C  24)   -178.7601         0.019144   
    411. D(C  32,C  31,C  30,C  35)     -0.1882         0.027537   
    412. D(C  32,C  31,C  30,C  29)    178.8879         0.027537   
    413. D(H  79,C  31,C  30,C  29)     -0.8820         0.027537   
    414. D(H  79,C  31,C  30,C  35)   -179.9581         0.027537   
    415. D(H  80,C  32,C  31,H  79)     -0.4542         0.029214   
    416. D(H  80,C  32,C  31,C  30)    179.7776         0.029214   
    417. D(C  33,C  32,C  31,H  79)    178.9638         0.029214   
    418. D(C  33,C  32,C  31,C  30)     -0.8044         0.029214   
    419. D(H  81,C  33,C  32,H  80)      0.4006         0.026491   
    420. D(H  81,C  33,C  32,C  31)   -179.0209         0.026491   
    421. D(C  34,C  33,C  32,H  80)   -179.9826         0.026491   
    422. D(C  34,C  33,C  32,C  31)      0.5959         0.026491   
    423. D(H  82,C  34,C  33,H  81)      1.1313         0.028845   
    424. D(H  82,C  34,C  33,C  32)   -178.4859         0.028845   
    425. D(C  35,C  34,C  33,H  81)   -179.7560         0.028845   
    426. D(C  35,C  34,C  33,C  32)      0.6269         0.028845   
    427. D(C  30,C  35,C  34,H  82)    177.4855         0.027652   
    428. D(N  23,C  35,C  34,H  82)      0.5298         0.027652   
    429. D(N  23,C  35,C  34,C  33)   -178.5770         0.027652   
    430. D(C  34,C  35,C  30,C  31)      1.4317         0.022574   
    431. D(C  34,C  35,C  30,C  29)   -177.8661         0.022574   
    432. D(N  23,C  35,C  30,C  31)    178.9507         0.022574   
    433. D(N  23,C  35,C  30,C  29)     -0.3471         0.022574   
    434. D(C  34,C  35,N  23,C  24)    177.3816         0.026604   
    435. D(C  34,C  35,N  23,C  22)      4.0290         0.026604   
    436. D(C  30,C  35,C  34,C  33)     -1.6213         0.027652   
    437. D(C  30,C  35,N  23,C  24)      0.1484         0.026604   
    438. D(C  30,C  35,N  23,C  22)   -173.2042         0.026604   
    439. D(H  83,C  36,C  22,N  23)     -1.8027         0.026122   
    440. D(H  83,C  36,C  22,C  21)    178.3568         0.026122   
    441. D(C  37,C  36,C  22,N  23)    178.9263         0.026122   
    442. D(C  37,C  36,C  22,C  21)     -0.9142         0.026122   
    443. D(H  84,C  37,C  36,H  83)      2.0128         0.029946   
    444. D(H  84,C  37,C  36,C  22)   -178.7228         0.029946   
    445. D(C  19,C  37,C  36,H  83)   -178.9905         0.029946   
    446. D(C  19,C  37,C  36,C  22)      0.2739         0.029946   
    447. D(H  84,C  37,C  19,C  20)    179.2336         0.025483   
    448. D(H  84,C  37,C  19,C  18)      0.1405         0.025483   
    449. D(C  36,C  37,C  19,C  20)      0.2423         0.025483   
    450. D(C  36,C  37,C  19,C  18)   -178.8508         0.025483   
    451. D(C  12,N  38,C  16,C  17)    179.8705         0.036755   
    452. D(C  12,N  38,C  16,C  15)     -0.5118         0.036755   
    453. D(C  16,N  38,C  12,C  13)     -1.2980         0.038530   
    454. D(C  16,N  38,C  12,C  11)    178.8728         0.038530   
    455. D(C   7,N  39,C  11,C  12)    179.9516         0.037757   
    456. D(C   7,N  39,C  11,C  10)     -0.9689         0.037757   
    457. D(C  11,N  39,C   7,C   8)     -0.0114         0.038625   
    458. D(C  11,N  39,C   7,C   6)    179.4368         0.038625   
    459. D(C   2,N  40,C   6,C   7)   -179.8226         0.039078   
    460. D(C   2,N  40,C   6,C   5)      0.2235         0.039078   
    461. D(C   6,N  40,C   2,C   3)     -0.2089         0.036157   
    462. D(C   6,N  40,C   2,C   1)    179.6859         0.036157   
    463. D(C  59,C  41,C   0,H  60)    176.2539         0.017506   
    464. D(C  59,C  41,C   0,C   1)     -3.3723         0.017506   
    465. D(C  42,C  41,C   0,H  60)     -3.0086         0.017506   
    466. D(C  42,C  41,C   0,C   1)    177.3652         0.017506   
    467. D(H  85,C  42,C  41,C  59)    179.5913         0.025239   
    468. D(H  85,C  42,C  41,C   0)     -1.1079         0.025239   
    469. D(C  43,C  42,C  41,C  59)     -1.5639         0.025239   
    470. D(C  43,C  42,C  41,C   0)    177.7369         0.025239   
    471. D(H  86,C  43,C  42,H  85)      1.2172         0.029485   
    472. D(H  86,C  43,C  42,C  41)   -177.6234         0.029485   
    473. D(C  44,C  43,C  42,H  85)    179.3417         0.029485   
    474. D(C  44,C  43,C  42,C  41)      0.5011         0.029485   
    475. D(C  58,C  44,C  43,H  86)    179.3489         0.026411   
    476. D(C  58,C  44,C  43,C  42)      1.2160         0.026411   
    477. D(N  45,C  44,C  43,H  86)     -0.6335         0.026411   
    478. D(N  45,C  44,C  43,C  42)   -178.7665         0.026411   
    479. D(C  57,N  45,C  44,C  58)    130.7428         0.023601   
    480. D(C  57,N  45,C  44,C  43)    -49.2749         0.023601   
    481. D(C  46,N  45,C  44,C  58)    -42.8321         0.023601   
    482. D(C  46,N  45,C  44,C  43)    137.1501         0.023601   
    483. D(C  51,C  46,N  45,C  57)     -0.0414         0.026302   
    484. D(C  51,C  46,N  45,C  44)    174.5152         0.026302   
    485. D(C  47,C  46,N  45,C  57)    177.2073         0.026302   
    486. D(C  47,C  46,N  45,C  44)     -8.2361         0.026302   
    487. D(H  87,C  47,C  46,C  51)    177.1478         0.027531   
    488. D(H  87,C  47,C  46,N  45)      0.1697         0.027531   
    489. D(C  48,C  47,C  46,C  51)     -2.4275         0.027531   
    490. D(C  48,C  47,C  46,N  45)   -179.4056         0.027531   
    491. D(H  88,C  48,C  47,H  87)      0.6200         0.029015   
    492. D(H  88,C  48,C  47,C  46)   -179.8003         0.029015   
    493. D(C  49,C  48,C  47,H  87)   -178.6795         0.029015   
    494. D(C  49,C  48,C  47,C  46)      0.9002         0.029015   
    495. D(H  89,C  49,C  48,H  88)      0.8889         0.026555   
    496. D(H  89,C  49,C  48,C  47)   -179.8124         0.026555   
    497. D(C  50,C  49,C  48,H  88)   -178.3969         0.026555   
    498. D(C  50,C  49,C  48,C  47)      0.9018         0.026555   
    499. D(H  90,C  50,C  49,H  89)     -0.5700         0.029282   
    500. D(H  90,C  50,C  49,C  48)    178.7104         0.029282   
    501. D(C  51,C  50,C  49,H  89)    179.5761         0.029282   
    502. D(C  51,C  50,C  49,C  48)     -1.1435         0.029282   
    503. D(C  52,C  51,C  50,H  90)     -0.4580         0.027447   
    504. D(C  52,C  51,C  50,C  49)    179.3970         0.027447   
    505. D(C  46,C  51,C  50,H  90)    179.7614         0.027447   
    506. D(C  46,C  51,C  50,C  49)     -0.3836         0.027447   
    507. D(C  52,C  51,C  46,C  47)   -177.6215         0.022736   
    508. D(C  52,C  51,C  46,N  45)     -0.0822         0.022736   
    509. D(C  50,C  51,C  46,C  47)      2.2120         0.022736   
    510. D(C  50,C  51,C  46,N  45)    179.7513         0.022736   
    511. D(C  57,C  52,C  51,C  50)   -179.6316         0.019134   
    512. D(C  57,C  52,C  51,C  46)      0.1706         0.019134   
    513. D(C  53,C  52,C  51,C  50)      1.1634         0.019134   
    514. D(C  53,C  52,C  51,C  46)   -179.0344         0.019134   
    515. D(H  91,C  53,C  52,C  57)    179.9474         0.027541   
    516. D(H  91,C  53,C  52,C  51)     -0.9340         0.027541   
    517. D(C  54,C  53,C  52,C  57)     -0.3027         0.027541   
    518. D(C  54,C  53,C  52,C  51)    178.8159         0.027541   
    519. D(H  92,C  54,C  53,H  91)     -0.5326         0.029224   
    520. D(H  92,C  54,C  53,C  52)    179.7194         0.029224   
    521. D(C  55,C  54,C  53,H  91)    178.7855         0.029224   
    522. D(C  55,C  54,C  53,C  52)     -0.9625         0.029224   
    523. D(H  93,C  55,C  54,H  92)      0.4811         0.026526   
    524. D(H  93,C  55,C  54,C  53)   -178.8412         0.026526   
    525. D(C  56,C  55,C  54,H  92)   -179.8929         0.026526   
    526. D(C  56,C  55,C  54,C  53)      0.7847         0.026526   
    527. D(H  94,C  56,C  55,H  93)      1.2452         0.028833   
    528. D(H  94,C  56,C  55,C  54)   -178.3813         0.028833   
    529. D(C  57,C  56,C  55,H  93)   -179.6848         0.028833   
    530. D(C  57,C  56,C  55,C  54)      0.6888         0.028833   
    531. D(N  45,C  57,C  56,H  94)      0.3883         0.027642   
    532. D(N  45,C  57,C  56,C  55)   -178.6737         0.027642   
    533. D(C  56,C  57,C  52,C  53)      1.7994         0.022599   
    534. D(C  56,C  57,C  52,C  51)   -177.5299         0.022599   
    535. D(N  45,C  57,C  52,C  53)    179.1285         0.022599   
    536. D(N  45,C  57,C  52,C  51)     -0.2007         0.022599   
    537. D(C  56,C  57,N  45,C  46)    177.1674         0.026487   
    538. D(C  56,C  57,N  45,C  44)      2.6940         0.026487   
    539. D(C  52,C  57,N  45,C  46)      0.1522         0.026487   
    540. D(C  52,C  57,C  56,C  55)     -1.9558         0.027642   
    541. D(C  52,C  57,N  45,C  44)   -174.3212         0.026487   
    542. D(C  52,C  57,C  56,H  94)    177.1062         0.027642   
    543. D(H  95,C  58,C  44,N  45)     -2.7315         0.025954   
    544. D(H  95,C  58,C  44,C  43)    177.2858         0.025954   
    545. D(C  59,C  58,C  44,N  45)    178.1358         0.025954   
    546. D(C  59,C  58,C  44,C  43)     -1.8469         0.025954   
    547. D(H  96,C  59,C  58,H  95)      1.4128         0.030134   
    548. D(H  96,C  59,C  58,C  44)   -179.4619         0.030134   
    549. D(C  41,C  59,C  58,H  95)   -178.3562         0.030134   
    550. D(C  41,C  59,C  58,C  44)      0.7691         0.030134   
    551. D(H  96,C  59,C  41,C  42)   -178.8392         0.025234   
    552. D(H  96,C  59,C  41,C   0)      1.8861         0.025234   
    553. D(C  58,C  59,C  41,C  42)      0.9269         0.025234   
    554. D(C  58,C  59,C  41,C   0)   -178.3478         0.025234   
    -----------------------------------------------------------------

Number of atoms                         .... 97
Number of degrees of freedom            .... 554

         *************************************************************
         *                GEOMETRY OPTIMIZATION CYCLE   1            *
         *************************************************************
---------------------------------
CARTESIAN COORDINATES (ANGSTROEM)
---------------------------------
  C      2.334526    2.230608   -0.547599
  C      2.932724    3.331017   -0.065806
  C      4.368576    3.435139    0.105876
  C      4.945377    4.622677    0.575156
  C      6.317722    4.683909    0.724855
  C      7.079642    3.573646    0.400589
  C      6.421359    2.431041   -0.060574
  C      7.176343    1.213776   -0.421227
  C      8.381124    1.299285   -1.122336
  C      9.027751    0.123644   -1.459967
  C      8.471566   -1.084832   -1.078268
  C      7.272253   -1.070956   -0.361899
  C      6.617920   -2.317282    0.080627
  C      7.349248   -3.480256    0.338606
  C      6.661038   -4.620362    0.719577
  C      5.285393   -4.568101    0.837280
  C      4.635636   -3.350817    0.594003
  C      3.195552   -3.240326    0.736036
  C      2.551201   -2.065237    0.748712
  C      1.115260   -1.903052    0.872636
  C      0.583212   -0.704270    1.354482
  C     -0.779775   -0.518904    1.462023
  C     -1.657030   -1.530056    1.077713
  N     -3.043830   -1.359265    1.152926
  C     -3.947784   -1.729925    0.174281
  C     -3.720838   -2.172117   -1.121325
  C     -4.817356   -2.460793   -1.909590
  C     -6.116129   -2.303680   -1.432796
  C     -6.350078   -1.836633   -0.155703
  C     -5.262635   -1.541967    0.655221
  C     -5.139046   -1.039731    1.993769
  C     -6.063987   -0.691949    2.968003
  C     -5.601939   -0.251789    4.191723
  C     -4.236381   -0.172942    4.453314
  C     -3.296863   -0.518158    3.500780
  C     -3.754883   -0.936993    2.260248
  C     -1.137209   -2.734771    0.605629
  C      0.224153   -2.914393    0.503266
  N      5.303394   -2.264321    0.220520
  N      6.647265    0.057506   -0.056994
  N      5.108634    2.371609   -0.198259
  C      0.913307    2.038216   -0.739255
  C      0.451628    0.845786   -1.306485
  C     -0.895802    0.599651   -1.465662
  C     -1.833858    1.550043   -1.069076
  N     -3.206082    1.317430   -1.194840
  C     -4.157450    1.625796   -0.238849
  C     -3.994144    2.065982    1.067000
  C     -5.128126    2.291307    1.822276
  C     -6.401503    2.068517    1.305165
  C     -6.570743    1.595249    0.020141
  C     -5.444841    1.367139   -0.759004
  C     -5.254706    0.880700   -2.095653
  C     -6.131382    0.483254   -3.095163
  C     -5.612235    0.079820   -4.308559
  C     -4.238414    0.089484   -4.535387
  C     -3.346691    0.485010   -3.556752
  C     -3.860332    0.862424   -2.324689
  C     -1.385307    2.758471   -0.535001
  C     -0.039580    2.992344   -0.367107
  H      2.974089    1.399823   -0.815505
  H      2.368593    4.208953    0.217088
  H      4.323385    5.471968    0.815865
  H      6.790948    5.584415    1.091108
  H      8.151820    3.581012    0.522297
  H      8.780569    2.257251   -1.418223
  H      9.951866    0.147794   -2.020632
  H      8.945284   -2.014677   -1.351825
  H      8.425124   -3.490428    0.262011
  H      7.195299   -5.538247    0.922306
  H      4.718721   -5.440846    1.125580
  H      2.664557   -4.173899    0.866309
  H      3.145968   -1.163823    0.681531
  H      1.255018    0.090397    1.644282
  H     -1.171944    0.422828    1.814163
  H     -2.719866   -2.286372   -1.509296
  H     -4.663712   -2.806621   -2.920868
  H     -6.946664   -2.542896   -2.079801
  H     -7.355729   -1.696707    0.210673
  H     -7.121738   -0.769889    2.767946
  H     -6.304220    0.027550    4.963241
  H     -3.903047    0.160030    5.425556
  H     -2.241919   -0.475313    3.725346
  H     -1.813057   -3.531362    0.331690
  H      0.604200   -3.847301    0.115770
  H      1.168046    0.095844   -1.608404
  H     -1.229528   -0.343076   -1.870393
  H     -3.013784    2.223589    1.490351
  H     -5.023432    2.637196    2.839704
  H     -7.263180    2.259722    1.927042
  H     -7.555722    1.401815   -0.376956
  H     -7.196754    0.495535   -2.922331
  H     -6.275859   -0.237942   -5.099175
  H     -3.860177   -0.213567   -5.500930
  H     -2.286516    0.511552   -3.757028
  H     -2.105311    3.517203   -0.266512
  H      0.275281    3.933178    0.056593

----------------------------
CARTESIAN COORDINATES (A.U.)
----------------------------
  NO LB      ZA    FRAG     MASS         X           Y           Z
   0 C     6.0000    0    12.011    4.411614    4.215238   -1.034813
   1 C     6.0000    0    12.011    5.542045    6.294709   -0.124355
   2 C     6.0000    0    12.011    8.255412    6.491472    0.200077
   3 C     6.0000    0    12.011    9.345408    8.735593    1.086887
   4 C     6.0000    0    12.011   11.938765    8.851305    1.369778
   5 C     6.0000    0    12.011   13.378584    6.753212    0.757003
   6 C     6.0000    0    12.011   12.134610    4.594002   -0.114468
   7 C     6.0000    0    12.011   13.561324    2.293704   -0.796004
   8 C     6.0000    0    12.011   15.838028    2.455293   -2.120908
   9 C     6.0000    0    12.011   17.059978    0.233653   -2.758939
  10 C     6.0000    0    12.011   16.008940   -2.050035   -2.037631
  11 C     6.0000    0    12.011   13.742566   -2.023814   -0.683890
  12 C     6.0000    0    12.011   12.506056   -4.379028    0.152362
  13 C     6.0000    0    12.011   13.888066   -6.576731    0.639872
  14 C     6.0000    0    12.011   12.587538   -8.731219    1.359804
  15 C     6.0000    0    12.011    9.987946   -8.632460    1.582229
  16 C     6.0000    0    12.011    8.760082   -6.332127    1.122502
  17 C     6.0000    0    12.011    6.038719   -6.123328    1.390906
  18 C     6.0000    0    12.011    4.821071   -3.902731    1.414860
  19 C     6.0000    0    12.011    2.107536   -3.596247    1.649043
  20 C     6.0000    0    12.011    1.102112   -1.330877    2.559600
  21 C     6.0000    0    12.011   -1.473561   -0.980586    2.762823
  22 C     6.0000    0    12.011   -3.131332   -2.891388    2.036583
  23 N     7.0000    0    14.007   -5.752004   -2.568638    2.178713
  24 C     6.0000    0    12.011   -7.460230   -3.269085    0.329342
  25 C     6.0000    0    12.011   -7.031364   -4.104707   -2.118996
  26 C     6.0000    0    12.011   -9.103484   -4.650225   -3.608602
  27 C     6.0000    0    12.011  -11.557809   -4.353323   -2.707592
  28 C     6.0000    0    12.011  -11.999908   -3.470733   -0.294237
  29 C     6.0000    0    12.011   -9.944938   -2.913895    1.238188
  30 C     6.0000    0    12.011   -9.711390   -1.964806    3.767677
  31 C     6.0000    0    12.011  -11.459275   -1.307595    5.608713
  32 C     6.0000    0    12.011  -10.586131   -0.475813    7.921209
  33 C     6.0000    0    12.011   -8.005601   -0.326813    8.415544
  34 C     6.0000    0    12.011   -6.230167   -0.979177    6.615515
  35 C     6.0000    0    12.011   -7.095700   -1.770661    4.271249
  36 C     6.0000    0    12.011   -2.149014   -5.167968    1.144474
  37 C     6.0000    0    12.011    0.423587   -5.507404    0.951036
  38 N     7.0000    0    14.007   10.021962   -4.278947    0.416723
  39 N     7.0000    0    14.007   12.561511    0.108670   -0.107703
  40 N     7.0000    0    14.007    9.653919    4.481691   -0.374654
  41 C     6.0000    0    12.011    1.725899    3.851670   -1.396989
  42 C     6.0000    0    12.011    0.853452    1.598303   -2.468898
  43 C     6.0000    0    12.011   -1.692820    1.133177   -2.769700
  44 C     6.0000    0    12.011   -3.465489    2.929158   -2.020261
  45 N     7.0000    0    14.007   -6.058616    2.489582   -2.257921
  46 C     6.0000    0    12.011   -7.856443    3.072310   -0.451360
  47 C     6.0000    0    12.011   -7.547838    3.904139    2.016338
  48 C     6.0000    0    12.011   -9.690754    4.329943    3.443603
  49 C     6.0000    0    12.011  -12.097088    3.908931    2.466405
  50 C     6.0000    0    12.011  -12.416905    3.014584    0.038061
  51 C     6.0000    0    12.011  -10.289259    2.583519   -1.434309
  52 C     6.0000    0    12.011   -9.929955    1.664281   -3.960210
  53 C     6.0000    0    12.011  -11.586632    0.913218   -5.849011
  54 C     6.0000    0    12.011  -10.605586    0.150837   -8.141996
  55 C     6.0000    0    12.011   -8.009441    0.169101   -8.570639
  56 C     6.0000    0    12.011   -6.324330    0.916536   -6.721288
  57 C     6.0000    0    12.011   -7.294971    1.629745   -4.393026
  58 C     6.0000    0    12.011   -2.617850    5.212754   -1.011006
  59 C     6.0000    0    12.011   -0.074795    5.654711   -0.693732
  60 H     1.0000    0     1.008    5.620214    2.645281   -1.541082
  61 H     1.0000    0     1.008    4.475992    7.953768    0.410238
  62 H     1.0000    0     1.008    8.170014   10.340520    1.541761
  63 H     1.0000    0     1.008   12.833031   10.553014    2.061896
  64 H     1.0000    0     1.008   15.404708    6.767132    0.986998
  65 H     1.0000    0     1.008   16.592871    4.265586   -2.680054
  66 H     1.0000    0     1.008   18.806302    0.279291   -3.818442
  67 H     1.0000    0     1.008   16.904136   -3.807188   -2.554579
  68 H     1.0000    0     1.008   15.921176   -6.595952    0.495129
  69 H     1.0000    0     1.008   13.597145  -10.465770    1.742906
  70 H     1.0000    0     1.008    8.917089  -10.281708    2.127039
  71 H     1.0000    0     1.008    5.035282   -7.887526    1.637087
  72 H     1.0000    0     1.008    5.945017   -2.199307    1.287907
  73 H     1.0000    0     1.008    2.371640    0.170826    3.107242
  74 H     1.0000    0     1.008   -2.214654    0.799030    3.428271
  75 H     1.0000    0     1.008   -5.139802   -4.320617   -2.852156
  76 H     1.0000    0     1.008   -8.813138   -5.303745   -5.519641
  77 H     1.0000    0     1.008  -13.127293   -4.805377   -3.930254
  78 H     1.0000    0     1.008  -13.900314   -3.206312    0.398115
  79 H     1.0000    0     1.008  -13.458135   -1.454880    5.230660
  80 H     1.0000    0     1.008  -11.913249    0.052062    9.379167
  81 H     1.0000    0     1.008   -7.375689    0.302413   10.252814
  82 H     1.0000    0     1.008   -4.236614   -0.898211    7.039883
  83 H     1.0000    0     1.008   -3.426181   -6.673306    0.626804
  84 H     1.0000    0     1.008    1.141772   -7.270346    0.218774
  85 H     1.0000    0     1.008    2.207287    0.181118   -3.039443
  86 H     1.0000    0     1.008   -2.323472   -0.648320   -3.534530
  87 H     1.0000    0     1.008   -5.695226    4.201974    2.816356
  88 H     1.0000    0     1.008   -9.492911    4.983578    5.366263
  89 H     1.0000    0     1.008  -13.725420    4.270255    3.641581
  90 H     1.0000    0     1.008  -14.278246    2.649046   -0.712343
  91 H     1.0000    0     1.008  -13.599895    0.936426   -5.522405
  92 H     1.0000    0     1.008  -11.859654   -0.449645   -9.636044
  93 H     1.0000    0     1.008   -7.294677   -0.403582  -10.395252
  94 H     1.0000    0     1.008   -4.320888    0.966693   -7.099754
  95 H     1.0000    0     1.008   -3.978462    6.646551   -0.503634
  96 H     1.0000    0     1.008    0.520206    7.432629    0.106945



           ************************************************************
           *        Program running with 40 parallel MPI-processes    *
           *              working on a common directory               *
           ************************************************************
------------------------------------------------------------------------------
                   ___                                                        
                  /   \      - P O W E R E D   B Y -                         
                 /     \                                                     
                 |  |  |   _    _      __       _____    __    __             
                 |  |  |  | |  | |    /  \     |  _  \  |  |  /  |          
                  \  \/   | |  | |   /    \    | | | |  |  | /  /          
                 / \  \   | |__| |  /  /\  \   | |_| |  |  |/  /          
                |  |  |   |  __  | /  /__\  \  |    /   |      \           
                |  |  |   | |  | | |   __   |  |    \   |  |\   \          
                \     /   | |  | | |  |  |  |  | |\  \  |  | \   \       
                 \___/    |_|  |_| |__|  |__|  |_| \__\ |__|  \__/        
                                                                              
                      - O R C A' S   B I G   F R I E N D -                    
                                      &                                       
                       - I N T E G R A L  F E E D E R -                       
                                                                              
 v1 FN, 2020, v2 2021                                                         
------------------------------------------------------------------------------


Reading SHARK input file /dev/shm/slurm.malcolms.9849014/9849014/freq/FREQ_OPT.SHARKINP.tmp ... ok
----------------------
SHARK INTEGRAL PACKAGE
----------------------

Number of atoms                             ...     97
Number of basis functions                   ...   1025
Number of shells                            ...    471
Maximum angular momentum                    ...      2
Integral batch strategy                     ... SHARK/LIBINT Hybrid
RI-J (if used) integral strategy            ... SPLIT-RIJ (Revised 2003 algorithm where possible)
Printlevel                                  ...      1
Contraction scheme used                     ... SEGMENTED contraction
Coulomb Range Separation                    ... NOT USED
Exchange Range Separation                   ... NOT USED
Finite Nucleus Model                        ... NOT USED
Auxiliary Coulomb fitting basis             ... AVAILABLE
   # of basis functions in Aux-J            ...   3347
   # of shells in Aux-J                     ...   1085
   Maximum angular momentum in Aux-J        ...      4
Auxiliary J/K fitting basis                 ... NOT available
Auxiliary Correlation fitting basis         ... NOT available
Auxiliary 'external' fitting basis          ... NOT available
Integral threshold                          ...     2.500000e-11
Primitive cut-off                           ...     2.500000e-12
Primitive pair pre-selection threshold      ...     2.500000e-12

Calculating pre-screening integrals         ... done (  0.0 sec) Dimension = 471
Organizing shell pair data                  ... done (  0.4 sec)
Shell pair information
Total number of shell pairs                 ...    111156
Shell pairs after pre-screening             ...     53586
Total number of primitive shell pairs       ...    410856
Primitive shell pairs kept                  ...    115416
          la=0 lb=0:  16175 shell pairs
          la=1 lb=0:  20131 shell pairs
          la=1 lb=1:   6416 shell pairs
          la=2 lb=0:   6291 shell pairs
          la=2 lb=1:   4002 shell pairs
          la=2 lb=2:    571 shell pairs

Calculating one electron integrals          ... done (  0.1 sec)
Calculating RI/J V-Matrix + Cholesky decomp.... done (  0.6 sec)
Calculating Nuclear repulsion               ... done (  0.0 sec) ENN=   7954.284171613817 Eh

SHARK setup successfully completed in   1.8 seconds

Maximum memory used throughout the entire GTOINT-calculation: 83.9 MB


           ************************************************************
           *        Program running with 40 parallel MPI-processes    *
           *              working on a common directory               *
           ************************************************************

Diagonalization of the overlap matrix:
Smallest eigenvalue                        ... 1.644e-04
Time for diagonalization                   ...    0.188 sec
Threshold for overlap eigenvalues          ... 1.000e-08
Number of eigenvalues below threshold      ... 0
Time for construction of square roots      ...    0.104 sec
Total time needed                          ...    0.299 sec

Time for model grid setup =    0.634 sec

Loading Hartree-Fock densities                     ... done
Calculating cut-offs                               ... done
Initializing the effective Hamiltonian             ... done
Setting up the integral package (SHARK)            ... done
Starting the Coulomb interaction                   ... done (   0.4 sec)
Reading the grid                                   ... done
Mapping shells                                     ... done
Starting the XC term evaluation                    ... done (   0.1 sec)
  promolecular density results
     # of electrons  =    401.968204116
     EX              =   -325.326003460
     EC              =    -13.599924586
     EX+EC           =   -338.925928046
Transforming the Hamiltonian                       ... done (   0.1 sec)
Diagonalizing the Hamiltonian                      ... done (   0.2 sec)
Back transforming the eigenvectors                 ... done (   0.0 sec)
Now organizing SCF variables                       ... done
-------------------
DFT GRID GENERATION
-------------------

General Integration Accuracy     IntAcc      ... 4.959
Radial Grid Type                 RadialGrid  ... OptM3 with GC (2021)
Angular Grid (max. ang.)         AngularGrid ... 6 (Lebedev-590)
Angular grid pruning method      GridPruning ... 4 (adaptive)
Weight generation scheme         WeightScheme... Becke
Basis function cutoff            BFCut       ... 1.0000e-11
Integration weight cutoff        WCut        ... 1.0000e-14
Angular grids for H and He will be reduced by one unit
Partially contracted basis set               ... off
Rotationally invariant grid construction     ... off

Total number of grid points                  ...  1147310
Total number of batches                      ...    17976
Average number of points per batch           ...       63
Average number of grid points per atom       ...    11828
Time for grid setup =   12.536 sec

--------------------
COSX GRID GENERATION
--------------------

GRIDX 1
-------
General Integration Accuracy     IntAcc      ... 4.020
Radial Grid Type                 RadialGrid  ... OptM3 with GC (2021)
Angular Grid (max. ang.)         AngularGrid ... 2 (Lebedev-110)
Angular grid pruning method      GridPruning ... 4 (adaptive)
Weight generation scheme         WeightScheme... Becke
Basis function cutoff            BFCut       ... 1.0000e-11
Integration weight cutoff        WCut        ... 1.0000e-14
Angular grids for H and He will be reduced by one unit
Partially contracted basis set               ... on
Rotationally invariant grid construction     ... off

Total number of grid points                  ...   128835
Total number of batches                      ...     2059
Average number of points per batch           ...       62
Average number of grid points per atom       ...     1328
UseSFitting                                  ... on

GRIDX 2
-------
General Integration Accuracy     IntAcc      ... 4.338
Radial Grid Type                 RadialGrid  ... OptM3 with GC (2021)
Angular Grid (max. ang.)         AngularGrid ... 3 (Lebedev-194)
Angular grid pruning method      GridPruning ... 4 (adaptive)
Weight generation scheme         WeightScheme... Becke
Basis function cutoff            BFCut       ... 1.0000e-11
Integration weight cutoff        WCut        ... 1.0000e-14
Angular grids for H and He will be reduced by one unit
Partially contracted basis set               ... on
Rotationally invariant grid construction     ... off

Total number of grid points                  ...   280574
Total number of batches                      ...     4429
Average number of points per batch           ...       63
Average number of grid points per atom       ...     2893
UseSFitting                                  ... on

GRIDX 3
-------
General Integration Accuracy     IntAcc      ... 4.871
Radial Grid Type                 RadialGrid  ... OptM3 with GC (2021)
Angular Grid (max. ang.)         AngularGrid ... 4 (Lebedev-302)
Angular grid pruning method      GridPruning ... 4 (adaptive)
Weight generation scheme         WeightScheme... Becke
Basis function cutoff            BFCut       ... 1.0000e-11
Integration weight cutoff        WCut        ... 1.0000e-14
Angular grids for H and He will be reduced by one unit
Partially contracted basis set               ... on
Rotationally invariant grid construction     ... off

Total number of grid points                  ...   515500
Total number of batches                      ...     8106
Average number of points per batch           ...       63
Average number of grid points per atom       ...     5314
UseSFitting                                  ... on

Time for X-Grid setup             =    6.596 sec

--------------
SCF ITERATIONS
--------------
ITER       Energy         Delta-E        Max-DP      RMS-DP      [F,P]     Damp
               ***  Starting incremental Fock matrix formation  ***
  0  -2386.4896748051   0.000000000000 0.08448731  0.00111164  0.1621692 0.7000
  1  -2386.9075776736  -0.417902868530 0.05594039  0.00079492  0.0795110 0.7000
                               ***Turning on DIIS***
  2  -2387.1017840100  -0.194206336378 0.11271861  0.00150084  0.0338145 0.0000
  3  -2387.3966905342  -0.294906524182 0.02822333  0.00047816  0.0355366 0.0000
  4  -2387.4559161218  -0.059225587607 0.00999524  0.00013540  0.0108840 0.0000
  5  -2387.4591518831  -0.003235761335 0.00366613  0.00004859  0.0040302 0.0000
                      *** Initiating the SOSCF procedure ***
                           *** Shutting down DIIS ***
                      *** Re-Reading the Fockian *** 
                      *** Removing any level shift *** 
ITER      Energy       Delta-E        Grad      Rot      Max-DP    RMS-DP
  6  -2387.45947368  -0.0003217989  0.000208  0.000208  0.001322  0.000024
               *** Restarting incremental Fock matrix formation ***
  7  -2387.45947039   0.0000032884  0.000137  0.000471  0.001122  0.000014
  8  -2387.45946294   0.0000074545  0.000262  0.000365  0.000612  0.000008
  9  -2387.45947526  -0.0000123251  0.000062  0.000204  0.000224  0.000003
 10  -2387.45947459   0.0000006738  0.000103  0.000128  0.000139  0.000002
 11  -2387.45947550  -0.0000009053  0.000018  0.000062  0.000073  0.000001
 12  -2387.45947550  -0.0000000034  0.000032  0.000047  0.000047  0.000001
                  ***Gradient check signals convergence***
              ***Rediagonalizing the Fockian in SOSCF/NRSCF***

               *****************************************************
               *                     SUCCESS                       *
               *           SCF CONVERGED AFTER  13 CYCLES          *
               *****************************************************

Old exchange energy                            =    -82.836761231 Eh
New exchange energy                            =    -82.836749892 Eh
Exchange energy change after final integration =      0.000011339 Eh
Total energy after final integration           =  -2387.459464214 Eh
Final COS-X integration done in                =    26.813 sec
Total Energy       :        -2387.45946421 Eh          -64966.07483 eV
  Last Energy change         ...   -5.3526e-08  Tolerance :   1.0000e-08
  Last MAX-Density change    ...    6.2172e-15  Tolerance :   1.0000e-07
             **** THE GBW FILE WAS UPDATED (/dev/shm/slurm.malcolms.9849014/9849014/freq/FREQ_OPT.gbw) ****
             **** DENSITY /dev/shm/slurm.malcolms.9849014/9849014/freq/FREQ_OPT.scfp WAS UPDATED ****
             **** ENERGY FILE WAS UPDATED (/dev/shm/slurm.malcolms.9849014/9849014/freq/FREQ_OPT.en.tmp) ****
             **** THE GBW FILE WAS UPDATED (/dev/shm/slurm.malcolms.9849014/9849014/freq/FREQ_OPT.gbw) ****
             **** DENSITY /dev/shm/slurm.malcolms.9849014/9849014/freq/FREQ_OPT.scfp WAS UPDATED ****
----------------
ORBITAL ENERGIES
----------------

  NO   OCC          E(Eh)            E(eV) 
   0   2.0000     -14.442546      -393.0017 
   1   2.0000     -14.441380      -392.9699 
   2   2.0000     -14.381982      -391.3536 
   3   2.0000     -14.380748      -391.3201 
   4   2.0000     -14.378864      -391.2688 
   5   2.0000     -10.284312      -279.8504 
   6   2.0000     -10.282713      -279.8068 
   7   2.0000     -10.276154      -279.6284 
   8   2.0000     -10.275632      -279.6142 
   9   2.0000     -10.275270      -279.6043 
  10   2.0000     -10.275129      -279.6005 
  11   2.0000     -10.275097      -279.5996 
  12   2.0000     -10.274191      -279.5750 
  13   2.0000     -10.266609      -279.3686 
  14   2.0000     -10.266034      -279.3530 
  15   2.0000     -10.265486      -279.3381 
  16   2.0000     -10.264932      -279.3230 
  17   2.0000     -10.258493      -279.1478 
  18   2.0000     -10.255913      -279.0776 
  19   2.0000     -10.255572      -279.0683 
  20   2.0000     -10.249541      -278.9042 
  21   2.0000     -10.249098      -278.8921 
  22   2.0000     -10.246007      -278.8080 
  23   2.0000     -10.245958      -278.8067 
  24   2.0000     -10.245566      -278.7960 
  25   2.0000     -10.245000      -278.7806 
  26   2.0000     -10.244947      -278.7792 
  27   2.0000     -10.244630      -278.7706 
  28   2.0000     -10.243247      -278.7329 
  29   2.0000     -10.242347      -278.7084 
  30   2.0000     -10.241634      -278.6890 
  31   2.0000     -10.241273      -278.6792 
  32   2.0000     -10.241073      -278.6738 
  33   2.0000     -10.240721      -278.6642 
  34   2.0000     -10.240587      -278.6605 
  35   2.0000     -10.239698      -278.6364 
  36   2.0000     -10.237337      -278.5721 
  37   2.0000     -10.236080      -278.5379 
  38   2.0000     -10.234134      -278.4849 
  39   2.0000     -10.232541      -278.4416 
  40   2.0000     -10.229454      -278.3576 
  41   2.0000     -10.229382      -278.3556 
  42   2.0000     -10.229054      -278.3467 
  43   2.0000     -10.228891      -278.3423 
  44   2.0000     -10.228837      -278.3408 
  45   2.0000     -10.228773      -278.3391 
  46   2.0000     -10.228596      -278.3342 
  47   2.0000     -10.228233      -278.3244 
  48   2.0000     -10.228142      -278.3219 
  49   2.0000     -10.227541      -278.3055 
  50   2.0000     -10.227408      -278.3019 
  51   2.0000     -10.227248      -278.2976 
  52   2.0000     -10.226910      -278.2884 
  53   2.0000     -10.226652      -278.2813 
  54   2.0000     -10.225115      -278.2395 
  55   2.0000     -10.224779      -278.2304 
  56   2.0000     -10.222235      -278.1612 
  57   2.0000     -10.221643      -278.1450 
  58   2.0000     -10.221127      -278.1310 
  59   2.0000     -10.220307      -278.1087 
  60   2.0000      -1.022887       -27.8342 
  61   2.0000      -1.020163       -27.7600 
  62   2.0000      -0.989740       -26.9322 
  63   2.0000      -0.975181       -26.5360 
  64   2.0000      -0.959446       -26.1078 
  65   2.0000      -0.900056       -24.4918 
  66   2.0000      -0.895761       -24.3749 
  67   2.0000      -0.869674       -23.6650 
  68   2.0000      -0.867946       -23.6180 
  69   2.0000      -0.864762       -23.5314 
  70   2.0000      -0.864073       -23.5126 
  71   2.0000      -0.841813       -22.9069 
  72   2.0000      -0.833206       -22.6727 
  73   2.0000      -0.831949       -22.6385 
  74   2.0000      -0.827561       -22.5191 
  75   2.0000      -0.821571       -22.3561 
  76   2.0000      -0.816106       -22.2074 
  77   2.0000      -0.807859       -21.9830 
  78   2.0000      -0.794241       -21.6124 
  79   2.0000      -0.784816       -21.3559 
  80   2.0000      -0.778912       -21.1953 
  81   2.0000      -0.776898       -21.1405 
  82   2.0000      -0.770945       -20.9785 
  83   2.0000      -0.764181       -20.7944 
  84   2.0000      -0.763393       -20.7730 
  85   2.0000      -0.757661       -20.6170 
  86   2.0000      -0.748268       -20.3614 
  87   2.0000      -0.730975       -19.8909 
  88   2.0000      -0.728478       -19.8229 
  89   2.0000      -0.727912       -19.8075 
  90   2.0000      -0.722143       -19.6505 
  91   2.0000      -0.686140       -18.6708 
  92   2.0000      -0.681403       -18.5419 
  93   2.0000      -0.676071       -18.3968 
  94   2.0000      -0.671972       -18.2853 
  95   2.0000      -0.651099       -17.7173 
  96   2.0000      -0.649861       -17.6836 
  97   2.0000      -0.645254       -17.5582 
  98   2.0000      -0.642517       -17.4838 
  99   2.0000      -0.631803       -17.1922 
 100   2.0000      -0.629834       -17.1387 
 101   2.0000      -0.624520       -16.9941 
 102   2.0000      -0.616906       -16.7869 
 103   2.0000      -0.615445       -16.7471 
 104   2.0000      -0.613473       -16.6935 
 105   2.0000      -0.596705       -16.2372 
 106   2.0000      -0.594263       -16.1707 
 107   2.0000      -0.586383       -15.9563 
 108   2.0000      -0.585757       -15.9393 
 109   2.0000      -0.580908       -15.8073 
 110   2.0000      -0.575989       -15.6735 
 111   2.0000      -0.556804       -15.1514 
 112   2.0000      -0.555774       -15.1234 
 113   2.0000      -0.554960       -15.1012 
 114   2.0000      -0.538398       -14.6505 
 115   2.0000      -0.532256       -14.4834 
 116   2.0000      -0.530724       -14.4417 
 117   2.0000      -0.526808       -14.3352 
 118   2.0000      -0.525512       -14.2999 
 119   2.0000      -0.518409       -14.1066 
 120   2.0000      -0.517991       -14.0953 
 121   2.0000      -0.511790       -13.9265 
 122   2.0000      -0.505051       -13.7431 
 123   2.0000      -0.504730       -13.7344 
 124   2.0000      -0.496938       -13.5224 
 125   2.0000      -0.492269       -13.3953 
 126   2.0000      -0.483810       -13.1651 
 127   2.0000      -0.480086       -13.0638 
[...]
 724   0.0000       1.819450        49.5097 
 725   0.0000       1.822318        49.5878 
 726   0.0000       1.824149        49.6376 
 727   0.0000       1.826113        49.6911 
 728   0.0000       1.829877        49.7935 
 729   0.0000       1.832037        49.8523 
 730   0.0000       1.834826        49.9282 
 731   0.0000       1.839282        50.0494 
 732   0.0000       1.840156        50.0732 
 733   0.0000       1.844164        50.1822 
 734   0.0000       1.849105        50.3167 
 735   0.0000       1.850594        50.3572 
 736   0.0000       1.854488        50.4632 
 737   0.0000       1.856269        50.5116 
 738   0.0000       1.859263        50.5931 
 739   0.0000       1.860629        50.6303 
 740   0.0000       1.865198        50.7546 
 741   0.0000       1.869819        50.8804 
 742   0.0000       1.874591        51.0102 
 743   0.0000       1.876868        51.0722 
 744   0.0000       1.882848        51.2349 
 745   0.0000       1.890120        51.4328 
 746   0.0000       1.892885        51.5080 
 747   0.0000       1.896171        51.5974 
 748   0.0000       1.906393        51.8756 
 749   0.0000       1.909904        51.9711 
 750   0.0000       1.914288        52.0904 
 751   0.0000       1.916155        52.1412 
 752   0.0000       1.922450        52.3125 
 753   0.0000       1.929230        52.4970 
 754   0.0000       1.929968        52.5171 
 755   0.0000       1.931073        52.5472 
 756   0.0000       1.935508        52.6678 
 757   0.0000       1.941756        52.8379 
 758   0.0000       1.943988        52.8986 
 759   0.0000       1.945679        52.9446 
 760   0.0000       1.949162        53.0394 
 761   0.0000       1.952987        53.1435 
 762   0.0000       1.954446        53.1832 
 763   0.0000       1.957451        53.2650 
 764   0.0000       1.963338        53.4251 
 765   0.0000       1.965945        53.4961 
 766   0.0000       1.967923        53.5499 
 767   0.0000       1.970741        53.6266 
 768   0.0000       1.972886        53.6850 
 769   0.0000       1.974588        53.7313 
 770   0.0000       1.979558        53.8665 
 771   0.0000       1.983541        53.9749 
 772   0.0000       1.986285        54.0495 
 773   0.0000       1.987917        54.0940 
 774   0.0000       1.992271        54.2124 
 775   0.0000       1.997552        54.3561 
 776   0.0000       1.998035        54.3693 
 777   0.0000       2.000283        54.4305 
 778   0.0000       2.005705        54.5780 
 779   0.0000       2.014536        54.8183 
 780   0.0000       2.016751        54.8786 
 781   0.0000       2.018908        54.9373 
 782   0.0000       2.021258        55.0012 
 783   0.0000       2.026662        55.1483 
 784   0.0000       2.032025        55.2942 
 785   0.0000       2.038498        55.4704 
 786   0.0000       2.040976        55.5378 
 787   0.0000       2.048260        55.7360 
 788   0.0000       2.052033        55.8387 
 789   0.0000       2.054705        55.9114 
 790   0.0000       2.061966        56.1089 
 791   0.0000       2.069631        56.3175 
 792   0.0000       2.071221        56.3608 
 793   0.0000       2.073250        56.4160 
 794   0.0000       2.078556        56.5604 
 795   0.0000       2.080312        56.6082 
 796   0.0000       2.082098        56.6568 
 797   0.0000       2.085642        56.7532 
 798   0.0000       2.087380        56.8005 
 799   0.0000       2.091127        56.9024 
 800   0.0000       2.094238        56.9871 
 801   0.0000       2.100280        57.1515 
 802   0.0000       2.102838        57.2211 
 803   0.0000       2.107757        57.3550 
 804   0.0000       2.117524        57.6208 
 805   0.0000       2.121963        57.7416 
 806   0.0000       2.131126        57.9909 
 807   0.0000       2.134596        58.0853 
 808   0.0000       2.145293        58.3764 
 809   0.0000       2.150080        58.5067 
 810   0.0000       2.153786        58.6075 
 811   0.0000       2.155021        58.6411 
 812   0.0000       2.159484        58.7625 
 813   0.0000       2.161364        58.8137 
 814   0.0000       2.167566        58.9825 
 815   0.0000       2.168286        59.0021 
 816   0.0000       2.170405        59.0597 
 817   0.0000       2.175023        59.1854 
 818   0.0000       2.178242        59.2730 
 819   0.0000       2.179411        59.3048 
 820   0.0000       2.182948        59.4010 
 821   0.0000       2.184929        59.4549 
 822   0.0000       2.188356        59.5482 
 823   0.0000       2.192482        59.6605 
 824   0.0000       2.195959        59.7551 
 825   0.0000       2.200564        59.8804 
 826   0.0000       2.207227        60.0617 
 827   0.0000       2.210067        60.1390 
 828   0.0000       2.210531        60.1516 
 829   0.0000       2.212915        60.2165 
 830   0.0000       2.217717        60.3472 
 831   0.0000       2.220235        60.4157 
 832   0.0000       2.225841        60.5682 
 833   0.0000       2.229549        60.6691 
 834   0.0000       2.231621        60.7255 
 835   0.0000       2.236454        60.8570 
 836   0.0000       2.239094        60.9288 
 837   0.0000       2.240192        60.9587 
 838   0.0000       2.244093        61.0649 
 839   0.0000       2.246620        61.1336 
 840   0.0000       2.252166        61.2845 
 841   0.0000       2.255380        61.3720 
 842   0.0000       2.256334        61.3980 
 843   0.0000       2.259719        61.4901 
 844   0.0000       2.265514        61.6478 
 845   0.0000       2.272538        61.8389 
 846   0.0000       2.277300        61.9685 
 847   0.0000       2.277879        61.9842 
 848   0.0000       2.283534        62.1381 
 849   0.0000       2.288327        62.2686 
 850   0.0000       2.293366        62.4057 
 851   0.0000       2.295441        62.4621 
 852   0.0000       2.308701        62.8229 
 853   0.0000       2.311656        62.9034 
 854   0.0000       2.313584        62.9558 
 855   0.0000       2.316845        63.0446 
 856   0.0000       2.320641        63.1478 
 857   0.0000       2.322829        63.2074 
 858   0.0000       2.329785        63.3967 
 859   0.0000       2.333512        63.4981 
 860   0.0000       2.335222        63.5446 
 861   0.0000       2.338032        63.6211 
 862   0.0000       2.342012        63.7294 
 863   0.0000       2.342882        63.7531 
 864   0.0000       2.344934        63.8089 
 865   0.0000       2.349807        63.9415 
 866   0.0000       2.354558        64.0708 
 867   0.0000       2.363114        64.3036 
 868   0.0000       2.364034        64.3286 
 869   0.0000       2.367264        64.4165 
 870   0.0000       2.369787        64.4852 
 871   0.0000       2.379079        64.7380 
 872   0.0000       2.380688        64.7818 
 873   0.0000       2.384261        64.8790 
 874   0.0000       2.392898        65.1141 
 875   0.0000       2.398528        65.2673 
 876   0.0000       2.408033        65.5259 
 877   0.0000       2.410466        65.5921 
 878   0.0000       2.413587        65.6770 
 879   0.0000       2.418453        65.8095 
 880   0.0000       2.421490        65.8921 
 881   0.0000       2.423683        65.9518 
 882   0.0000       2.425870        66.0113 
 883   0.0000       2.431697        66.1699 
 884   0.0000       2.432421        66.1895 
 885   0.0000       2.435393        66.2704 
 886   0.0000       2.440024        66.3964 
 887   0.0000       2.441699        66.4420 
 888   0.0000       2.451701        66.7142 
 889   0.0000       2.455447        66.8161 
 890   0.0000       2.457572        66.8739 
 891   0.0000       2.463319        67.0303 
 892   0.0000       2.468259        67.1648 
 893   0.0000       2.471695        67.2582 
 894   0.0000       2.496435        67.9314 
 895   0.0000       2.498279        67.9816 
 896   0.0000       2.512499        68.3686 
 897   0.0000       2.513835        68.4049 
 898   0.0000       2.526176        68.7407 
 899   0.0000       2.538541        69.0772 
 900   0.0000       2.563093        69.7453 
 901   0.0000       2.567196        69.8570 
 902   0.0000       2.570930        69.9586 
 903   0.0000       2.575078        70.0714 
 904   0.0000       2.580285        70.2131 
 905   0.0000       2.586668        70.3868 
 906   0.0000       2.590294        70.4855 
 907   0.0000       2.594439        70.5983 
 908   0.0000       2.601186        70.7819 
 909   0.0000       2.607410        70.9512 
 910   0.0000       2.607481        70.9532 
 911   0.0000       2.611869        71.0726 
 912   0.0000       2.625586        71.4458 
 913   0.0000       2.630366        71.5759 
 914   0.0000       2.633840        71.6704 
 915   0.0000       2.634855        71.6981 
 916   0.0000       2.638958        71.8097 
 917   0.0000       2.643963        71.9459 
 918   0.0000       2.649438        72.0949 
 919   0.0000       2.653127        72.1953 
 920   0.0000       2.658046        72.3291 
 921   0.0000       2.662802        72.4585 
 922   0.0000       2.669065        72.6290 
 923   0.0000       2.672508        72.7226 
 924   0.0000       2.678182        72.8770 
 925   0.0000       2.689278        73.1790 
 926   0.0000       2.689875        73.1952 
 927   0.0000       2.692998        73.2802 
 928   0.0000       2.700477        73.4837 
 929   0.0000       2.704658        73.5975 
 930   0.0000       2.707890        73.6854 
 931   0.0000       2.710116        73.7460 
 932   0.0000       2.721993        74.0692 
 933   0.0000       2.725050        74.1524 
 934   0.0000       2.736389        74.4609 
 935   0.0000       2.742305        74.6219 
 936   0.0000       2.744865        74.6916 
 937   0.0000       2.750048        74.8326 
 938   0.0000       2.751254        74.8654 
 939   0.0000       2.754169        74.9448 
 940   0.0000       2.756212        75.0004 
 941   0.0000       2.760072        75.1054 
 942   0.0000       2.760638        75.1208 
 943   0.0000       2.764231        75.2185 
 944   0.0000       2.766081        75.2689 
 945   0.0000       2.767287        75.3017 
 946   0.0000       2.773053        75.4586 
 947   0.0000       2.779696        75.6394 
 948   0.0000       2.782075        75.7041 
 949   0.0000       2.788577        75.8811 
 950   0.0000       2.789007        75.8927 
 951   0.0000       2.792900        75.9987 
 952   0.0000       2.802812        76.2684 
 953   0.0000       2.803431        76.2852 
 954   0.0000       2.812399        76.5293 
 955   0.0000       2.818390        76.6923 
 956   0.0000       2.821591        76.7794 
 957   0.0000       2.828287        76.9616 
 958   0.0000       2.829531        76.9955 
 959   0.0000       2.833344        77.0992 
 960   0.0000       2.835899        77.1687 
 961   0.0000       2.851818        77.6019 
 962   0.0000       2.861764        77.8726 
 963   0.0000       2.868593        78.0584 
 964   0.0000       2.871670        78.1421 
 965   0.0000       2.878390        78.3250 
 966   0.0000       2.880984        78.3956 
 967   0.0000       2.899814        78.9079 
 968   0.0000       2.903467        79.0073 
 969   0.0000       2.904208        79.0275 
 970   0.0000       2.912825        79.2620 
 971   0.0000       2.921267        79.4917 
 972   0.0000       2.927637        79.6651 
 973   0.0000       2.930642        79.7468 
 974   0.0000       2.932209        79.7895 
 975   0.0000       2.938941        79.9726 
 976   0.0000       2.972656        80.8901 
 977   0.0000       2.981453        81.1295 
 978   0.0000       2.984074        81.2008 
 979   0.0000       2.994615        81.4876 
 980   0.0000       3.003775        81.7369 
 981   0.0000       3.009078        81.8812 
 982   0.0000       3.012702        81.9798 
 983   0.0000       3.042673        82.7953 
 984   0.0000       3.060536        83.2814 
 985   0.0000       3.060847        83.2899 
 986   0.0000       3.069733        83.5317 
 987   0.0000       3.072236        83.5998 
 988   0.0000       3.078621        83.7735 
 989   0.0000       3.085360        83.9569 
 990   0.0000       3.090280        84.0908 
 991   0.0000       3.096265        84.2536 
 992   0.0000       3.107669        84.5640 
 993   0.0000       3.116109        84.7936 
 994   0.0000       3.117960        84.8440 
 995   0.0000       3.129174        85.1491 
 996   0.0000       3.135395        85.3184 
 997   0.0000       3.143494        85.5388 
 998   0.0000       3.144182        85.5575 
 999   0.0000       3.149278        85.6962 
 1000   0.0000       3.152825        85.7927 
 1001   0.0000       3.160950        86.0138 
 1002   0.0000       3.180711        86.5515 
 1003   0.0000       3.189648        86.7947 
 1004   0.0000       3.257490        88.6408 
 1005   0.0000       3.311636        90.1142 
 1006   0.0000       3.314865        90.2021 
 1007   0.0000       3.345390        91.0327 
 1008   0.0000       3.357257        91.3556 
 1009   0.0000       3.362825        91.5071 
 1010   0.0000       3.378055        91.9216 
 1011   0.0000       3.397947        92.4628 
 1012   0.0000       3.460152        94.1555 
 1013   0.0000       3.466058        94.3162 
 1014   0.0000       3.477617        94.6308 
 1015   0.0000       3.551719        96.6472 
 1016   0.0000       3.578138        97.3661 
 1017   0.0000       3.589370        97.6717 
 1018   0.0000       3.591316        97.7247 
 1019   0.0000       3.657155        99.5162 
 1020   0.0000       3.673732        99.9673 
 1021   0.0000       3.685913       100.2988 
 1022   0.0000       3.734046       101.6086 
 1023   0.0000       3.735064       101.6363 
 1024   0.0000       3.737621       101.7058 
Total SCF time: 0 days 0 hours 2 min 35 sec 

Maximum memory used throughout the entire SCF-calculation: 439.1 MB


-------------------------------------------------------------------------------
                          DFT DISPERSION CORRECTION                            
                                                                               
                              DFTD3 V3.1  Rev 1                                
                          USING Becke-Johnson damping                          
-------------------------------------------------------------------------------
-------------------------   ----------------
Dispersion correction           -0.158464402
-------------------------   ----------------


-------------------------   --------------------
FINAL SINGLE POINT ENERGY     -2387.634584449788
-------------------------   --------------------

                                *** OPTIMIZATION RUN DONE ***

                            ***************************************
                            *     ORCA property calculations      *
                            ***************************************

                                    ---------------------
                                    Active property flags
                                    ---------------------
   (+) Dipole Moment


------------------------------------------------------------------------------
                       ORCA ELECTRIC PROPERTIES CALCULATION
------------------------------------------------------------------------------

Dipole Moment Calculation                       ... on
Quadrupole Moment Calculation                   ... off
Polarizability Calculation                      ... off
GBWName                                         ... /dev/shm/slurm.malcolms.9849014/9849014/freq/FREQ_OPT.gbw
Electron density                                ... /dev/shm/slurm.malcolms.9849014/9849014/freq/FREQ_OPT.scfp
The origin for moment calculation is the CENTER OF MASS  = ( 0.001874,  0.000978 -0.001140)

-------------
DIPOLE MOMENT
-------------
                                X             Y             Z
Electronic contribution:      9.68560       0.22570      -0.31299
Nuclear contribution   :     -7.79564      -0.19004       0.28977
                        -----------------------------------------
Total Dipole Moment    :      1.88997       0.03566      -0.02322
                        -----------------------------------------
Magnitude (a.u.)       :      1.89045
Magnitude (Debye)      :      4.80513



--------------------
Rotational spectrum 
--------------------
 
Rotational constants in cm-1:     0.002556     0.000777     0.000742 
Rotational constants in MHz :    76.630226    23.294360    22.248106 

 Dipole components along the rotational axes: 
x,y,z [a.u.] :     1.890096     0.035015    -0.009956 
x,y,z [Debye]:     4.804241     0.089001    -0.025306 

 


           ************************************************************
           *        Program running with 40 parallel MPI-processes    *
           *              working on a common directory               *
           ************************************************************

-------------------------------------------------------------------------------
                               ORCA SCF HESSIAN
-------------------------------------------------------------------------------

                   --------- SHARK INITIALIZATION DONE ---------

Hessian of the Kohn-Sham DFT energy:
Kohn-Sham wavefunction type                      ... RKS
Hartree-Fock exchange scaling                    ...    0.250
Number of operators                              ...    1
Number of atoms                                  ...   97
Basis set dimensions                             ... 1025
Integral neglect threshold                       ... 2.5e-11
Integral primitive cutoff                        ... 2.5e-12

Setting up DFT Hessian calculations              ... 

HESS GRID
---------

General Integration Accuracy     IntAcc      ... 4.959
Radial Grid Type                 RadialGrid  ... OptM3 with GC (2021)
Angular Grid (max. ang.)         AngularGrid ... 7 (Lebedev-770)
Angular grid pruning method      GridPruning ... 4 (adaptive)
Weight generation scheme         WeightScheme... Becke
Basis function cutoff            BFCut       ... 1.0000e-11
Integration weight cutoff        WCut        ... 1.0000e-14
Angular grids for H and He will be reduced by one unit
Partially contracted basis set               ... off
Rotationally invariant grid construction     ... off

Total number of grid points                  ...  1649072
Total number of batches                      ...    25818
Average number of points per batch           ...       63
Average number of grid points per atom       ...    17001

Building densities                               ... done   (      0.2 sec)
Calculating rho(r) on the grid                   ... done   (      1.3 sec)
Building xc-kernel on the grid                   ... done   (      0.4 sec)
                                                     done   (     28.1 sec)

Nuclear repulsion Hessian  (SHARK)               ... done   (      0.0 sec)

----------------------------------------------
Forming right-hand sides of CP-SCF equations     ...
----------------------------------------------
One electron integral derivatives  (SHARK)       ... done   (      3.2 sec)
Transforming the overlap derivative matrices     ... done   (      2.0 sec)
Making the Q(x) pseudodensities                  ... done   (      2.1 sec)
Adding the E*S(x)*S(y) terms to the Hessian      ... done   (      5.5 sec)
Calculating energy weighted overlap derivatives  ... done   (      0.7 sec)
Two electron integral derivatives (SHARK-RI)     ... done   (    285.3 sec)
Exchange-correlation integral derivatives        ... done   (    135.8 sec)
tr(F(y)Q(x)) contribution to the Hessian         ... done   (      8.1 sec)

Response fock operator R(S(x)) (SHARK-RIJCOSX)   ... 
IBatch  1 (of  2):                                   
ORCA finished by error termination in SCF Hessian
Calling Command: mpirun -np 40  /project/a/aspuru/orca/orca503/orca_scfhess_mpi /dev/shm/slurm.malcolms.9849014/9849014/freq/FREQ_OPT.scfhess.inp /dev/shm/slurm.malcolms.9849014/9849014/freq/FREQ_OPT 
[file orca_tools/qcmsg.cpp, line 465]: 
  .... aborting the run

