
                                 *****************
                                 * O   R   C   A *
                                 *****************

                                            #,                                       
                                            ###                                      
                                            ####                                     
                                            #####                                    
                                            ######                                   
                                           ########,                                 
                                     ,,################,,,,,                         
                               ,,#################################,,                 
                          ,,##########################################,,             
                       ,#########################################, ''#####,          
                    ,#############################################,,   '####,        
                  ,##################################################,,,,####,       
                ,###########''''           ''''###############################       
              ,#####''   ,,,,##########,,,,          '''####'''          '####       
            ,##' ,,,,###########################,,,                        '##       
           ' ,,###''''                  '''############,,,                           
         ,,##''                                '''############,,,,        ,,,,,,###''
      ,#''                                            '''#######################'''  
     '                                                          ''''####''''         
             ,#######,   #######,   ,#######,      ##                                
            ,#'     '#,  ##    ##  ,#'     '#,    #''#        ######   ,####,        
            ##       ##  ##   ,#'  ##            #'  '#       #        #'  '#        
            ##       ##  #######   ##           ,######,      #####,   #    #        
            '#,     ,#'  ##    ##  '#,     ,#' ,#      #,         ##   #,  ,#        
             '#######'   ##     ##  '#######'  #'      '#     #####' # '####'        



                  #######################################################
                  #                        -***-                        #
                  #          Department of theory and spectroscopy      #
                  #    Directorship and core code : Frank Neese         #
                  #        Max Planck Institute fuer Kohlenforschung    #
                  #                Kaiser Wilhelm Platz 1               #
                  #                 D-45470 Muelheim/Ruhr               #
                  #                      Germany                        #
                  #                                                     #
                  #                  All rights reserved                #
                  #                        -***-                        #
                  #######################################################


                         Program Version 5.0.3 -  RELEASE  -


 With contributions from (in alphabetic order):
   Daniel Aravena         : Magnetic Suceptibility
   Michael Atanasov       : Ab Initio Ligand Field Theory (pilot matlab implementation)
   Alexander A. Auer      : GIAO ZORA, VPT2 properties, NMR spectrum
   Ute Becker             : Parallelization
   Giovanni Bistoni       : ED, misc. LED, open-shell LED, HFLD
   Martin Brehm           : Molecular dynamics
   Dmytro Bykov           : SCF Hessian
   Vijay G. Chilkuri      : MRCI spin determinant printing, contributions to CSF-ICE
   Dipayan Datta          : RHF DLPNO-CCSD density
   Achintya Kumar Dutta   : EOM-CC, STEOM-CC
   Dmitry Ganyushin       : Spin-Orbit,Spin-Spin,Magnetic field MRCI
   Miquel Garcia          : C-PCM and meta-GGA Hessian, CC/C-PCM, Gaussian charge scheme
   Yang Guo               : DLPNO-NEVPT2, F12-NEVPT2, CIM, IAO-localization
   Andreas Hansen         : Spin unrestricted coupled pair/coupled cluster methods
   Benjamin Helmich-Paris : MC-RPA, TRAH-SCF, COSX integrals
   Lee Huntington         : MR-EOM, pCC
   Robert Izsak           : Overlap fitted RIJCOSX, COSX-SCS-MP3, EOM
   Marcus Kettner         : VPT2
   Christian Kollmar      : KDIIS, OOCD, Brueckner-CCSD(T), CCSD density, CASPT2, CASPT2-K
   Simone Kossmann        : Meta GGA functionals, TD-DFT gradient, OOMP2, MP2 Hessian
   Martin Krupicka        : Initial AUTO-CI
   Lucas Lang             : DCDCAS
   Marvin Lechner         : AUTO-CI (C++ implementation), FIC-MRCC
   Dagmar Lenk            : GEPOL surface, SMD
   Dimitrios Liakos       : Extrapolation schemes; Compound Job, initial MDCI parallelization
   Dimitrios Manganas     : Further ROCIS development; embedding schemes
   Dimitrios Pantazis     : SARC Basis sets
   Anastasios Papadopoulos: AUTO-CI, single reference methods and gradients
   Taras Petrenko         : DFT Hessian,TD-DFT gradient, ASA, ECA, R-Raman, ABS, FL, XAS/XES, NRVS
   Peter Pinski           : DLPNO-MP2, DLPNO-MP2 Gradient
   Christoph Reimann      : Effective Core Potentials
   Marius Retegan         : Local ZFS, SOC
   Christoph Riplinger    : Optimizer, TS searches, QM/MM, DLPNO-CCSD(T), (RO)-DLPNO pert. Triples
   Tobias Risthaus        : Range-separated hybrids, TD-DFT gradient, RPA, STAB
   Michael Roemelt        : Original ROCIS implementation
   Masaaki Saitow         : Open-shell DLPNO-CCSD energy and density
   Barbara Sandhoefer     : DKH picture change effects
   Avijit Sen             : IP-ROCIS
   Kantharuban Sivalingam : CASSCF convergence, NEVPT2, FIC-MRCI
   Bernardo de Souza      : ESD, SOC TD-DFT
   Georgi Stoychev        : AutoAux, RI-MP2 NMR, DLPNO-MP2 response
   Willem Van den Heuvel  : Paramagnetic NMR
   Boris Wezisla          : Elementary symmetry handling
   Frank Wennmohs         : Technical directorship


 We gratefully acknowledge several colleagues who have allowed us to
 interface, adapt or use parts of their codes:
   Stefan Grimme, W. Hujo, H. Kruse, P. Pracht,  : VdW corrections, initial TS optimization,
                  C. Bannwarth, S. Ehlert          DFT functionals, gCP, sTDA/sTD-DF
   Ed Valeev, F. Pavosevic, A. Kumar             : LibInt (2-el integral package), F12 methods
   Garnet Chan, S. Sharma, J. Yang, R. Olivares  : DMRG
   Ulf Ekstrom                                   : XCFun DFT Library
   Mihaly Kallay                                 : mrcc  (arbitrary order and MRCC methods)
   Jiri Pittner, Ondrej Demel                    : Mk-CCSD
   Frank Weinhold                                : gennbo (NPA and NBO analysis)
   Christopher J. Cramer and Donald G. Truhlar   : smd solvation model
   Lars Goerigk                                  : TD-DFT with DH, B97 family of functionals
   V. Asgeirsson, H. Jonsson                     : NEB implementation
   FAccTs GmbH                                   : IRC, NEB, NEB-TS, DLPNO-Multilevel, CI-OPT
                                                   MM, QMMM, 2- and 3-layer-ONIOM, Crystal-QMMM,
                                                   LR-CPCM, SF, NACMEs, symmetry and pop. for TD-DFT,
                                                   nearIR, NL-DFT gradient (VV10), updates on ESD,
                                                   ML-optimized integration grids
   S Lehtola, MJT Oliveira, MAL Marques          : LibXC Library
   Liviu Ungur et al                             : ANISO software


 Your calculation uses the libint2 library for the computation of 2-el integrals
 For citations please refer to: http://libint.valeyev.net

 Your ORCA version has been built with support for libXC version: 5.1.0
 For citations please refer to: https://tddft.org/programs/libxc/

 This ORCA versions uses:
   CBLAS   interface :  Fast vector & matrix operations
   LAPACKE interface :  Fast linear algebra routines
   SCALAPACK package :  Parallel linear algebra routines
   Shared memory     :  Shared parallel matrices
   BLAS/LAPACK       :  OpenBLAS 0.3.15  USE64BITINT DYNAMIC_ARCH NO_AFFINITY SkylakeX SINGLE_THREADED
        Core in use  :  SkylakeX
   Copyright (c) 2011-2014, The OpenBLAS Project




***************************************
The coordinates will be read from file: T1_XTB_OPT_XYZ.xyz
***************************************


Your calculation utilizes the atom-pairwise dispersion correction
with the Becke-Johnson damping scheme (D3BJ)
Cite in your paper:
S.Grimme, S.Ehrlich, L.Goerigk, J Comput Chem, (2011), 32, 1456–1465 
S.Grimme, J.Antony, S.Ehrlich and H.Krieg, J.Chem.Phys., 132, (2010), 154104 
   

================================================================================

----- Orbital basis set information -----
Your calculation utilizes the basis: def2-SVP
   F. Weigend and R. Ahlrichs, Phys. Chem. Chem. Phys. 7, 3297 (2005).

----- AuxJ basis set information -----
Your calculation utilizes the auxiliary basis: def2/J
   F. Weigend, Phys. Chem. Chem. Phys. 8, 1057 (2006).

================================================================================
                                        WARNINGS
                       Please study these warnings very carefully!
================================================================================

INFO   : Checking CIS options ...

WARNING: (CIS/TDDFT): IROOTMULT=TRIPLETS needs TRIPLETS set to TRUE
  ===> : ajusting flags

WARNING: CIS/ROCIS methods need fully converged wavefunctions
  ===> : Setting SCFConvForced true
         You can overwrite this default with %scf ConvForced false 


INFO   : the flag for use of the SHARK integral package has been found!

================================================================================
                                       INPUT FILE
================================================================================
NAME = /dev/shm/slurm.malcolms.9699206/9699206/T1/T1_OPT.inp
|  1> ! PBE0 def2-SVP D3BJ def2/J RIJCOSX tightSCF noautostart miniprint nopop defgrid3 Opt
|  2> %maxcore    4000
|  3> %pal    nprocs  40  end
|  4> %geom	Convergence	loose
|  5> 	MaxIter	5
|  6> end
|  7> %tddft  PrintLevel  3
|  8> 	IRootMult	Triplet
|  9> 	NRoots	5
| 10> 	IRoot	1
| 11> 	TDA	True
| 12>         MaxDim  10
| 13> end
| 14> * xyzfile 0 1 T1_XTB_OPT_XYZ.xyz
| 15> 
| 16> 
| 17>                          ****END OF INPUT****
================================================================================

                       *****************************
                       * Geometry Optimization Run *
                       *****************************

Geometry optimization settings:
Update method            Update   .... BFGS
Choice of coordinates    CoordSys .... Z-matrix Internals
Initial Hessian          InHess   .... Almoef's Model

Convergence Tolerances:
Energy Change            TolE     ....  3.0000e-05 Eh
Max. Gradient            TolMAXG  ....  2.0000e-03 Eh/bohr
RMS Gradient             TolRMSG  ....  5.0000e-04 Eh/bohr
Max. Displacement        TolMAXD  ....  1.0000e-02 bohr
RMS Displacement         TolRMSD  ....  7.0000e-03 bohr
Strict Convergence                ....  False
------------------------------------------------------------------------------
                        ORCA OPTIMIZATION COORDINATE SETUP
------------------------------------------------------------------------------

The optimization will be done in new redundant internal coordinates
Making redundant internal coordinates   ...  (new redundants) done
Evaluating the initial hessian          ...  (Almloef) done
Evaluating the coordinates              ...  done
Calculating the B-matrix                .... done
Calculating the G-matrix                .... done
Diagonalizing the G-matrix              .... done
Small eigenvalue found = 1.792e-04
Small eigenvalue found = 5.860e-04
Small eigenvalue found = 1.159e-03
Small eigenvalue found = 1.760e-03
Small eigenvalue found = 3.372e-03
Small eigenvalue found = 4.127e-03
Small eigenvalue found = 4.455e-03
Small eigenvalue found = 1.125e-02
Small eigenvalue found = 1.284e-02
Small eigenvalue found = 1.649e-02
Small eigenvalue found = 1.864e-02
Small eigenvalue found = 2.869e-02
The first mode is                       ....  226
The number of degrees of freedom        ....  234

    -----------------------------------------------------------------
                    Redundant Internal Coordinates


    -----------------------------------------------------------------
         Definition                    Initial Value    Approx d2E/dq
    -----------------------------------------------------------------
      1. B(C   1,C   0)                  1.3735         0.663832   
      2. B(C   2,C   1)                  1.4025         0.596728   
      3. B(C   3,C   2)                  1.4328         0.533827   
      4. B(N   4,C   3)                  1.2926         0.800373   
      5. B(C   5,N   4)                  1.3656         0.612069   
      6. B(C   6,C   5)                  1.4017         0.598601   
      7. B(C   7,C   6)                  1.3751         0.660046   
      8. B(C   8,C   7)                  1.4209         0.557847   
      9. B(C   9,C   8)                  1.4099         0.580662   
     10. B(C  10,C   9)                  1.3728         0.665598   
     11. B(C  11,C  10)                  1.3988         0.604942   
     12. B(N  12,C  11)                  1.3940         0.551473   
     13. B(C  13,N  12)                  1.3829         0.574485   
     14. B(C  14,C  13)                  1.3878         0.629788   
     15. B(C  15,C  14)                  1.3823         0.642733   
     16. B(C  16,C  15)                  1.3926         0.618949   
     17. B(C  17,C  16)                  1.3817         0.644201   
     18. B(C  18,C  17)                  1.3875         0.630598   
     19. B(C  18,C  13)                  1.4138         0.572550   
     20. B(C  19,C  18)                  1.4376         0.524592   
     21. B(C  20,C  19)                  1.3875         0.630654   
     22. B(C  21,C  20)                  1.3817         0.644205   
     23. B(C  22,C  21)                  1.3925         0.618997   
     24. B(C  23,C  22)                  1.3823         0.642662   
     25. B(C  24,C  23)                  1.3878         0.629863   
     26. B(C  24,C  19)                  1.4138         0.572394   
     27. B(C  24,N  12)                  1.3828         0.574510   
     28. B(C  25,C  11)                  1.3988         0.604829   
     29. B(C  26,C  25)                  1.3720         0.667567   
     30. B(C  26,C   8)                  1.4110         0.578360   
     31. B(C  27,C   5)                  1.4293         0.540749   
     32. B(N  28,C  27)                  1.3239         0.713436   
     33. B(S  29,N  28)                  1.6374         0.608004   
     34. B(N  30,S  29)                  1.6286         0.627951   
     35. B(C  31,N  30)                  1.3247         0.711200   
     36. B(C  31,C  27)                  1.4382         0.523380   
     37. B(C  31,C   2)                  1.4234         0.552591   
     38. B(C  32,C   0)                  1.4232         0.552992   
     39. B(C  33,C  32)                  1.4101         0.580251   
     40. B(C  34,C  33)                  1.3725         0.666181   
     41. B(C  35,C  34)                  1.3983         0.606082   
     42. B(N  36,C  35)                  1.3936         0.552220   
     43. B(C  37,N  36)                  1.3831         0.574028   
     44. B(C  38,C  37)                  1.3877         0.630076   
     45. B(C  39,C  38)                  1.3824         0.642600   
     46. B(C  40,C  39)                  1.3925         0.619099   
     47. B(C  41,C  40)                  1.3816         0.644334   
     48. B(C  42,C  41)                  1.3875         0.630586   
     49. B(C  42,C  37)                  1.4137         0.572648   
     50. B(C  43,C  42)                  1.4376         0.524579   
     51. B(C  44,C  43)                  1.3875         0.630482   
     52. B(C  45,C  44)                  1.3816         0.644358   
     53. B(C  46,C  45)                  1.3925         0.619072   
     54. B(C  47,C  46)                  1.3823         0.642647   
     55. B(C  48,C  47)                  1.3877         0.630012   
     56. B(C  48,C  43)                  1.4136         0.572842   
     57. B(C  48,N  36)                  1.3832         0.573652   
     58. B(C  49,C  35)                  1.3986         0.605401   
     59. B(C  50,C  49)                  1.3726         0.666015   
     60. B(C  50,C  32)                  1.4093         0.581929   
     61. B(H  51,C   0)                  1.0817         0.371258   
     62. B(H  52,C   1)                  1.0815         0.371471   
     63. B(H  53,C   3)                  1.0822         0.370576   
     64. B(H  54,C   6)                  1.0810         0.372180   
     65. B(H  55,C   7)                  1.0814         0.371674   
     66. B(H  56,C   9)                  1.0784         0.375795   
     67. B(H  57,C  10)                  1.0801         0.373479   
     68. B(H  58,C  14)                  1.0792         0.374688   
     69. B(H  59,C  15)                  1.0798         0.373788   
     70. B(H  60,C  16)                  1.0797         0.373990   
     71. B(H  61,C  17)                  1.0794         0.374363   
     72. B(H  62,C  20)                  1.0794         0.374360   
     73. B(H  63,C  21)                  1.0797         0.373988   
     74. B(H  64,C  22)                  1.0799         0.373780   
     75. B(H  65,C  23)                  1.0792         0.374699   
     76. B(H  66,C  25)                  1.0799         0.373704   
     77. B(H  67,C  26)                  1.0801         0.373472   
     78. B(H  68,C  33)                  1.0806         0.372792   
     79. B(H  69,C  34)                  1.0798         0.373790   
     80. B(H  70,C  38)                  1.0792         0.374622   
     81. B(H  71,C  39)                  1.0799         0.373772   
     82. B(H  72,C  40)                  1.0797         0.374019   
     83. B(H  73,C  41)                  1.0794         0.374393   
     84. B(H  74,C  44)                  1.0794         0.374393   
     85. B(H  75,C  45)                  1.0797         0.374026   
     86. B(H  76,C  46)                  1.0798         0.373817   
     87. B(H  77,C  47)                  1.0792         0.374680   
     88. B(H  78,C  49)                  1.0799         0.373721   
     89. B(H  79,C  50)                  1.0782         0.376002   
     90. A(C  32,C   0,H  51)          115.4095         0.347947   
     91. A(C   1,C   0,H  51)          118.7029         0.358879   
     92. A(C   1,C   0,C  32)          125.8876         0.430487   
     93. A(C   0,C   1,C   2)          126.4825         0.436421   
     94. A(C   2,C   1,H  52)          114.0268         0.352481   
     95. A(C   0,C   1,H  52)          119.4907         0.358913   
     96. A(C   3,C   2,C  31)          113.9330         0.413996   
     97. A(C   1,C   2,C   3)          125.8561         0.419698   
     98. A(C   1,C   2,C  31)          120.2106         0.422294   
     99. A(N   4,C   3,H  53)          114.8356         0.368117   
    100. A(C   2,C   3,H  53)          119.0712         0.345781   
    101. A(C   2,C   3,N   4)          126.0931         0.439514   
    102. A(C   3,N   4,C   5)          121.7739         0.447559   
    103. A(N   4,C   5,C   6)          115.9669         0.427529   
    104. A(C   6,C   5,C  27)          125.4283         0.420899   
    105. A(N   4,C   5,C  27)          118.6046         0.419830   
    106. A(C   7,C   6,H  54)          121.0162         0.358681   
    107. A(C   5,C   6,H  54)          114.2016         0.352782   
    108. A(C   5,C   6,C   7)          124.7820         0.436218   
    109. A(C   8,C   7,H  55)          116.5761         0.348526   
    110. A(C   6,C   7,C   8)          126.4342         0.430720   
    111. A(C   6,C   7,H  55)          116.9894         0.358598   
    112. A(C   9,C   8,C  26)          117.2246         0.423676   
    113. A(C   7,C   8,C   9)          123.9184         0.420952   
    114. A(C   7,C   8,C  26)          118.8569         0.420654   
    115. A(C  10,C   9,H  56)          119.1055         0.359784   
    116. A(C   8,C   9,C  10)          121.2584         0.434489   
    117. A(C   8,C   9,H  56)          119.6320         0.351545   
    118. A(C   9,C  10,C  11)          120.5950         0.437707   
    119. A(C  11,C  10,H  57)          119.1621         0.353620   
    120. A(C   9,C  10,H  57)          120.2158         0.359406   
    121. A(C  10,C  11,N  12)          120.5154         0.420424   
    122. A(N  12,C  11,C  25)          120.4276         0.420410   
    123. A(C  10,C  11,C  25)          119.0570         0.430232   
    124. A(C  13,N  12,C  24)          108.3068         0.416899   
    125. A(C  11,N  12,C  24)          125.8868         0.413879   
    126. A(C  11,N  12,C  13)          125.8049         0.413876   
    127. A(N  12,C  13,C  14)          129.5938         0.426566   
    128. A(C  14,C  13,C  18)          120.9922         0.429107   
    129. A(N  12,C  13,C  18)          109.3260         0.419364   
    130. A(C  13,C  14,H  58)          121.3587         0.356237   
    131. A(C  15,C  14,H  58)          120.8064         0.357471   
    132. A(C  13,C  14,C  15)          117.8287         0.438126   
    133. A(C  16,C  15,H  59)          119.2976         0.355045   
    134. A(C  14,C  15,H  59)          119.1987         0.357325   
    135. A(C  14,C  15,C  16)          121.5031         0.436756   
    136. A(C  15,C  16,H  60)          119.2813         0.355077   
    137. A(C  15,C  16,C  17)          120.9268         0.436936   
    138. A(C  17,C  16,H  60)          119.7877         0.357496   
    139. A(C  18,C  17,H  61)          120.4480         0.356263   
    140. A(C  16,C  17,H  61)          120.9628         0.357557   
    141. A(C  16,C  17,C  18)          118.5882         0.438408   
    142. A(C  17,C  18,C  19)          133.3521         0.422536   
    143. A(C  13,C  18,C  19)          106.5200         0.415325   
    144. A(C  13,C  18,C  17)          120.1224         0.429206   
    145. A(C  18,C  19,C  20)          133.3389         0.422543   
    146. A(C  20,C  19,C  24)          120.1263         0.429192   
    147. A(C  18,C  19,C  24)          106.5286         0.415305   
    148. A(C  21,C  20,H  62)          120.9654         0.357557   
    149. A(C  19,C  20,H  62)          120.4441         0.356268   
    150. A(C  19,C  20,C  21)          118.5894         0.438415   
    151. A(C  20,C  21,C  22)          120.9240         0.436943   
    152. A(C  22,C  21,H  63)          119.2844         0.355082   
    153. A(C  20,C  21,H  63)          119.7873         0.357496   
    154. A(C  21,C  22,H  64)          119.2947         0.355048   
    155. A(C  21,C  22,C  23)          121.5056         0.436754   
    156. A(C  23,C  22,H  64)          119.1989         0.357317   
    157. A(C  22,C  23,H  65)          120.8005         0.357466   
    158. A(C  22,C  23,C  24)          117.8316         0.438126   
    159. A(C  24,C  23,H  65)          121.3613         0.356246   
    160. A(C  19,C  24,C  23)          120.9863         0.429095   
    161. A(N  12,C  24,C  19)          109.3172         0.419347   
    162. A(N  12,C  24,C  23)          129.6094         0.426578   
    163. A(C  11,C  25,H  66)          119.3140         0.353645   
    164. A(C  11,C  25,C  26)          120.2192         0.437926   
    165. A(C  26,C  25,H  66)          120.4387         0.359623   
    166. A(C   8,C  26,H  67)          118.6128         0.350941   
    167. A(C   8,C  26,C  25)          121.6450         0.434410   
    168. A(C  25,C  26,H  67)          119.7378         0.359585   
    169. A(N  28,C  27,C  31)          112.3226         0.428985   
    170. A(C   5,C  27,C  31)          119.1189         0.410963   
    171. A(C   5,C  27,N  28)          128.5584         0.431506   
    172. A(C  27,N  28,S  29)          108.7485         0.462774   
    173. A(N  28,S  29,N  30)           97.4298         0.478107   
    174. A(S  29,N  30,C  31)          108.7077         0.465248   
    175. A(C  27,C  31,N  30)          112.7914         0.428743   
    176. A(C   2,C  31,N  30)          126.7335         0.432945   
    177. A(C   2,C  31,C  27)          120.4750         0.412545   
    178. A(C   0,C  32,C  33)          119.1333         0.420243   
    179. A(C  33,C  32,C  50)          117.1802         0.424089   
    180. A(C   0,C  32,C  50)          123.6864         0.420459   
    181. A(C  32,C  33,H  68)          118.8447         0.351027   
    182. A(C  32,C  33,C  34)          121.6892         0.434502   
    183. A(C  34,C  33,H  68)          119.4619         0.359347   
    184. A(C  33,C  34,H  69)          120.3749         0.359510   
    185. A(C  33,C  34,C  35)          120.2198         0.437925   
    186. A(C  35,C  34,H  69)          119.3788         0.353783   
    187. A(C  34,C  35,N  36)          120.5609         0.420667   
    188. A(N  36,C  35,C  49)          120.4462         0.420582   
    189. A(C  34,C  35,C  49)          118.9929         0.430451   
    190. A(C  35,N  36,C  37)          125.8991         0.413917   
    191. A(C  37,N  36,C  48)          108.3032         0.416729   
    192. A(C  35,N  36,C  48)          125.7975         0.413869   
    193. A(N  36,C  37,C  38)          129.6147         0.426540   
    194. A(N  36,C  37,C  42)          109.3124         0.419317   
    195. A(C  38,C  37,C  42)          120.9841         0.429155   
    196. A(C  39,C  38,H  70)          120.7837         0.357448   
    197. A(C  37,C  38,H  70)          121.3717         0.356255   
    198. A(C  37,C  38,C  39)          117.8378         0.438145   
    199. A(C  38,C  39,C  40)          121.5008         0.436759   
    200. A(C  40,C  39,H  71)          119.2983         0.355057   
    201. A(C  38,C  39,H  71)          119.2001         0.357310   
    202. A(C  39,C  40,C  41)          120.9215         0.436971   
    203. A(C  41,C  40,H  72)          119.7926         0.357513   
    204. A(C  39,C  40,H  72)          119.2815         0.355096   
    205. A(C  42,C  41,H  73)          120.4401         0.356266   
    206. A(C  40,C  41,H  73)          120.9664         0.357574   
    207. A(C  40,C  41,C  42)          118.5925         0.438422   
    208. A(C  41,C  42,C  43)          133.3324         0.422533   
    209. A(C  37,C  42,C  43)          106.5360         0.415336   
    210. A(C  37,C  42,C  41)          120.1255         0.429218   
    211. A(C  44,C  43,C  48)          120.1242         0.429231   
    212. A(C  42,C  43,C  48)          106.5347         0.415361   
    213. A(C  42,C  43,C  44)          133.3355         0.422520   
    214. A(C  43,C  44,C  45)          118.5888         0.438412   
    215. A(C  45,C  44,H  74)          120.9681         0.357577   
    216. A(C  43,C  44,H  74)          120.4421         0.356256   
    217. A(C  44,C  45,C  46)          120.9237         0.436971   
    218. A(C  46,C  45,H  75)          119.2805         0.355095   
    219. A(C  44,C  45,H  75)          119.7916         0.357517   
    220. A(C  45,C  46,C  47)          121.5030         0.436761   
    221. A(C  47,C  46,H  76)          119.1914         0.357321   
    222. A(C  45,C  46,H  76)          119.3049         0.355061   
    223. A(C  46,C  47,C  48)          117.8305         0.438143   
    224. A(C  48,C  47,H  77)          121.3854         0.356258   
    225. A(C  46,C  47,H  77)          120.7779         0.357461   
    226. A(C  43,C  48,C  47)          120.9920         0.429174   
    227. A(N  36,C  48,C  47)          129.6074         0.426482   
    228. A(N  36,C  48,C  43)          109.3124         0.419294   
    229. A(C  35,C  49,C  50)          120.6429         0.437817   
    230. A(C  50,C  49,H  78)          120.1425         0.359484   
    231. A(C  35,C  49,H  78)          119.1874         0.353705   
    232. A(C  32,C  50,C  49)          121.2743         0.434709   
    233. A(C  49,C  50,H  79)          118.9618         0.359856   
    234. A(C  32,C  50,H  79)          119.7590         0.351708   
    235. D(C   2,C   1,C   0,H  51)     -0.1544         0.030776   
    236. D(C   2,C   1,C   0,C  32)    179.8415         0.030776   
    237. D(H  52,C   1,C   0,C  32)     -0.0431         0.030776   
    238. D(H  52,C   1,C   0,H  51)    179.9609         0.030776   
    239. D(C   3,C   2,C   1,C   0)      0.2286         0.024533   
    240. D(C   3,C   2,C   1,H  52)   -179.8814         0.024533   
    241. D(C  31,C   2,C   1,C   0)   -179.5578         0.024533   
    242. D(C  31,C   2,C   1,H  52)      0.3322         0.024533   
    243. D(N   4,C   3,C   2,C  31)      0.3652         0.019459   
    244. D(H  53,C   3,C   2,C  31)   -179.7092         0.019459   
    245. D(N   4,C   3,C   2,C   1)   -179.4329         0.019459   
    246. D(H  53,C   3,C   2,C   1)      0.4928         0.019459   
    247. D(C   5,N   4,C   3,C   2)     -0.0881         0.049377   
    248. D(C   5,N   4,C   3,H  53)    179.9836         0.049377   
    249. D(C   6,C   5,N   4,C   3)    179.6067         0.027435   
    250. D(C  27,C   5,N   4,C   3)     -0.2388         0.027435   
    251. D(H  54,C   6,C   5,N   4)     -0.1027         0.024696   
    252. D(H  54,C   6,C   5,C  27)    179.7307         0.024696   
    253. D(C   7,C   6,C   5,N   4)   -179.9659         0.024696   
    254. D(C   7,C   6,C   5,C  27)     -0.1325         0.024696   
    255. D(H  55,C   7,C   6,H  54)    179.8040         0.030401   
    256. D(H  55,C   7,C   6,C   5)     -0.3416         0.030401   
    257. D(C   8,C   7,C   6,C   5)    179.4587         0.030401   
    258. D(C   8,C   7,C   6,H  54)     -0.3957         0.030401   
    259. D(C   9,C   8,C   7,C   6)      0.5876         0.021310   
    260. D(C  26,C   8,C   7,H  55)      0.5033         0.021310   
    261. D(C   9,C   8,C   7,H  55)   -179.6114         0.021310   
    262. D(C  26,C   8,C   7,C   6)   -179.2977         0.021310   
    263. D(H  56,C   9,C   8,C   7)      1.1061         0.023167   
    264. D(C  10,C   9,C   8,C  26)      0.2528         0.023167   
    265. D(C  10,C   9,C   8,C   7)   -179.6342         0.023167   
    266. D(H  56,C   9,C   8,C  26)   -179.0068         0.023167   
    267. D(H  57,C  10,C   9,H  56)      0.9025         0.030953   
    268. D(C  11,C  10,C   9,H  56)    178.9913         0.030953   
    269. D(C  11,C  10,C   9,C   8)     -0.2722         0.030953   
    270. D(H  57,C  10,C   9,C   8)   -178.3609         0.030953   
    271. D(C  25,C  11,C  10,H  57)    178.1485         0.025251   
    272. D(N  12,C  11,C  10,H  57)     -1.8459         0.025251   
    273. D(N  12,C  11,C  10,C   9)   -179.9546         0.025251   
    274. D(C  25,C  11,C  10,C   9)      0.0399         0.025251   
    275. D(C  13,N  12,C  11,C  25)    -47.2493         0.024247   
    276. D(C  24,N  12,C  11,C  25)    132.2528         0.024247   
    277. D(C  13,N  12,C  11,C  10)    132.7451         0.024247   
    278. D(C  24,N  12,C  11,C  10)    -47.7528         0.024247   
    279. D(C  18,C  13,N  12,C  24)      0.1230         0.026438   
    280. D(C  14,C  13,N  12,C  24)    176.6763         0.026438   
    281. D(C  14,C  13,N  12,C  11)     -3.7486         0.026438   
    282. D(C  18,C  13,N  12,C  11)    179.6981         0.026438   
    283. D(H  58,C  14,C  13,C  18)    177.0489         0.027499   
    284. D(C  15,C  14,C  13,C  18)     -2.0482         0.027499   
    285. D(C  15,C  14,C  13,N  12)   -178.2535         0.027499   
    286. D(H  58,C  14,C  13,N  12)      0.8436         0.027499   
    287. D(H  59,C  15,C  14,H  58)      1.1573         0.028719   
    288. D(H  59,C  15,C  14,C  13)   -179.7404         0.028719   
    289. D(C  16,C  15,C  14,H  58)   -178.5370         0.028719   
    290. D(C  16,C  15,C  14,C  13)      0.5652         0.028719   
    291. D(H  60,C  16,C  15,H  59)      0.5164         0.026504   
    292. D(H  60,C  16,C  15,C  14)   -179.7896         0.026504   
    293. D(C  17,C  16,C  15,H  59)   -178.7329         0.026504   
    294. D(C  17,C  16,C  15,C  14)      0.9612         0.026504   
    295. D(H  61,C  17,C  16,C  15)    178.6718         0.028859   
    296. D(C  18,C  17,C  16,H  60)    179.7826         0.028859   
    297. D(C  18,C  17,C  16,C  15)     -0.9719         0.028859   
    298. D(H  61,C  17,C  16,H  60)     -0.5737         0.028859   
    299. D(C  19,C  18,C  17,H  61)     -1.1216         0.027575   
    300. D(C  19,C  18,C  17,C  16)    178.5240         0.027575   
    301. D(C  13,C  18,C  17,H  61)    179.8510         0.027575   
    302. D(C  13,C  18,C  17,C  16)     -0.5034         0.027575   
    303. D(C  19,C  18,C  13,C  14)   -177.2056         0.022496   
    304. D(C  17,C  18,C  13,C  14)      2.0567         0.022496   
    305. D(C  19,C  18,C  13,N  12)     -0.3036         0.022496   
    306. D(C  17,C  18,C  13,N  12)    178.9587         0.022496   
    307. D(C  24,C  19,C  18,C  17)   -178.7603         0.018775   
    308. D(C  24,C  19,C  18,C  13)      0.3623         0.018775   
    309. D(C  20,C  19,C  18,C  17)      2.1750         0.018775   
    310. D(C  20,C  19,C  18,C  13)   -178.7025         0.018775   
    311. D(H  62,C  20,C  19,C  24)    179.8990         0.027580   
    312. D(H  62,C  20,C  19,C  18)     -1.1377         0.027580   
    313. D(C  21,C  20,C  19,C  24)     -0.4752         0.027580   
    314. D(C  21,C  20,C  19,C  18)    178.4881         0.027580   
    315. D(H  63,C  21,C  20,H  62)     -0.5753         0.028859   
    316. D(H  63,C  21,C  20,C  19)    179.8010         0.028859   
    317. D(C  22,C  21,C  20,H  62)    178.6660         0.028859   
    318. D(C  22,C  21,C  20,C  19)     -0.9577         0.028859   
    319. D(H  64,C  22,C  21,H  63)      0.4974         0.026508   
    320. D(H  64,C  22,C  21,C  20)   -178.7477         0.026508   
    321. D(C  23,C  22,C  21,H  63)   -179.8231         0.026508   
    322. D(C  23,C  22,C  21,C  20)      0.9318         0.026508   
    323. D(H  65,C  23,C  22,H  64)      1.1681         0.028712   
    324. D(C  24,C  23,C  22,H  64)   -179.7543         0.028712   
    325. D(C  24,C  23,C  22,C  21)      0.5658         0.028712   
    326. D(H  65,C  23,C  22,C  21)   -178.5117         0.028712   
    327. D(C  19,C  24,C  23,H  65)    177.0663         0.027506   
    328. D(N  12,C  24,C  23,H  65)      0.8436         0.027506   
    329. D(N  12,C  24,C  23,C  22)   -178.2285         0.027506   
    330. D(C  23,C  24,C  19,C  20)      1.9990         0.022483   
    331. D(C  23,C  24,C  19,C  18)   -177.2145         0.022483   
    332. D(N  12,C  24,C  19,C  20)    178.9161         0.022483   
    333. D(N  12,C  24,C  19,C  18)     -0.2975         0.022483   
    334. D(C  23,C  24,N  12,C  13)    176.6820         0.026441   
    335. D(C  23,C  24,N  12,C  11)     -2.8927         0.026441   
    336. D(C  19,C  24,C  23,C  22)     -2.0058         0.027506   
    337. D(C  19,C  24,N  12,C  13)      0.1130         0.026441   
    338. D(C  19,C  24,N  12,C  11)   -179.4617         0.026441   
    339. D(H  66,C  25,C  11,N  12)     -1.7228         0.025241   
    340. D(C  26,C  25,C  11,C  10)      0.2045         0.025241   
    341. D(C  26,C  25,C  11,N  12)   -179.8010         0.025241   
    342. D(H  66,C  25,C  11,C  10)    178.2827         0.025241   
    343. D(H  67,C  26,C  25,H  66)      0.9538         0.031150   
    344. D(H  67,C  26,C  25,C  11)    179.0101         0.031150   
    345. D(C   8,C  26,C  25,H  66)   -178.2775         0.031150   
    346. D(C   8,C  26,C  25,C  11)     -0.2211         0.031150   
    347. D(H  67,C  26,C   8,C   9)   -179.2452         0.022975   
    348. D(H  67,C  26,C   8,C   7)      0.6477         0.022975   
    349. D(C  25,C  26,C   8,C   9)     -0.0056         0.022975   
    350. D(C  25,C  26,C   8,C   7)    179.8874         0.022975   
    351. D(C  31,C  27,C   5,C   6)   -179.5705         0.019982   
    352. D(C  31,C  27,C   5,N   4)      0.2590         0.019982   
    353. D(N  28,C  27,C   5,C   6)      0.3727         0.019982   
    354. D(N  28,C  27,C   5,N   4)   -179.7978         0.019982   
    355. D(S  29,N  28,C  27,C  31)     -0.0130         0.038258   
    356. D(S  29,N  28,C  27,C   5)   -179.9594         0.038258   
    357. D(N  30,S  29,N  28,C  27)      0.0228         0.007166   
    358. D(C  31,N  30,S  29,N  28)     -0.0263         0.007570   
    359. D(N  30,C  31,C   2,C   1)     -0.4070         0.020896   
    360. D(C  27,C  31,C   2,C   3)     -0.3154         0.020896   
    361. D(C  27,C  31,C   2,C   1)    179.4952         0.020896   
    362. D(C  27,C  31,N  30,S  29)      0.0221         0.037995   
    363. D(C   2,C  31,N  30,S  29)    179.9307         0.037995   
    364. D(N  30,C  31,C  27,N  28)     -0.0061         0.018686   
    365. D(N  30,C  31,C  27,C   5)    179.9459         0.018686   
    366. D(C   2,C  31,C  27,N  28)   -179.9211         0.018686   
    367. D(C   2,C  31,C  27,C   5)      0.0309         0.018686   
    368. D(N  30,C  31,C   2,C   3)    179.7824         0.020896   
    369. D(C  50,C  32,C   0,H  51)    179.1382         0.020927   
    370. D(C  50,C  32,C   0,C   1)     -0.8578         0.020927   
    371. D(C  33,C  32,C   0,H  51)     -0.7754         0.020927   
    372. D(C  33,C  32,C   0,C   1)    179.2285         0.020927   
    373. D(H  68,C  33,C  32,C  50)    179.2774         0.023133   
    374. D(H  68,C  33,C  32,C   0)     -0.8034         0.023133   
    375. D(C  34,C  33,C  32,C  50)      0.0252         0.023133   
    376. D(C  34,C  33,C  32,C   0)    179.9445         0.023133   
    377. D(H  69,C  34,C  33,H  68)     -0.9496         0.031011   
    378. D(H  69,C  34,C  33,C  32)    178.2981         0.031011   
    379. D(C  35,C  34,C  33,H  68)   -179.0648         0.031011   
    380. D(C  35,C  34,C  33,C  32)      0.1828         0.031011   
    381. D(C  49,C  35,C  34,H  69)   -178.3237         0.025351   
    382. D(C  49,C  35,C  34,C  33)     -0.1898         0.025351   
    383. D(N  36,C  35,C  34,H  69)      1.6772         0.025351   
    384. D(N  36,C  35,C  34,C  33)    179.8112         0.025351   
    385. D(C  48,N  36,C  35,C  49)     47.3333         0.024316   
    386. D(C  48,N  36,C  35,C  34)   -132.6676         0.024316   
    387. D(C  37,N  36,C  35,C  49)   -132.5354         0.024316   
    388. D(C  37,N  36,C  35,C  34)     47.4637         0.024316   
    389. D(C  42,C  37,N  36,C  48)     -0.1016         0.026394   
    390. D(C  42,C  37,N  36,C  35)    179.7862         0.026394   
    391. D(C  38,C  37,N  36,C  48)   -176.6382         0.026394   
    392. D(C  38,C  37,N  36,C  35)      3.2496         0.026394   
    393. D(H  70,C  38,C  37,C  42)   -177.0320         0.027526   
    394. D(H  70,C  38,C  37,N  36)     -0.8450         0.027526   
    395. D(C  39,C  38,C  37,C  42)      2.0265         0.027526   
    396. D(C  39,C  38,C  37,N  36)    178.2135         0.027526   
    397. D(H  71,C  39,C  38,H  70)     -1.1765         0.028706   
    398. D(H  71,C  39,C  38,C  37)    179.7592         0.028706   
    399. D(C  40,C  39,C  38,H  70)    178.5018         0.028706   
    400. D(C  40,C  39,C  38,C  37)     -0.5625         0.028706   
    401. D(H  72,C  40,C  39,H  71)     -0.5082         0.026517   
    402. D(H  72,C  40,C  39,C  38)    179.8138         0.026517   
    403. D(C  41,C  40,C  39,H  71)    178.7277         0.026517   
    404. D(C  41,C  40,C  39,C  38)     -0.9503         0.026517   
    405. D(H  73,C  41,C  40,H  72)      0.5779         0.028872   
    406. D(H  73,C  41,C  40,C  39)   -178.6541         0.028872   
    407. D(C  42,C  41,C  40,H  72)   -179.8014         0.028872   
    408. D(C  42,C  41,C  40,C  39)      0.9665         0.028872   
    409. D(C  43,C  42,C  41,H  73)      1.1469         0.027574   
    410. D(C  43,C  42,C  41,C  40)   -178.4758         0.027574   
    411. D(C  37,C  42,C  41,H  73)   -179.8871         0.027574   
    412. D(C  37,C  42,C  41,C  40)      0.4902         0.027574   
    413. D(C  43,C  42,C  37,C  38)    177.1862         0.022504   
    414. D(C  43,C  42,C  37,N  36)      0.2979         0.022504   
    415. D(C  41,C  42,C  37,C  38)     -2.0293         0.022504   
    416. D(C  41,C  42,C  37,N  36)   -178.9176         0.022504   
    417. D(C  48,C  43,C  42,C  41)    178.6931         0.018774   
    418. D(C  48,C  43,C  42,C  37)     -0.3740         0.018774   
    419. D(C  44,C  43,C  42,C  41)     -2.2000         0.018774   
    420. D(C  44,C  43,C  42,C  37)    178.7329         0.018774   
    421. D(H  74,C  44,C  43,C  48)   -179.8713         0.027564   
    422. D(H  74,C  44,C  43,C  42)      1.1185         0.027564   
    423. D(C  45,C  44,C  43,C  48)      0.4860         0.027564   
    424. D(C  45,C  44,C  43,C  42)   -178.5241         0.027564   
    425. D(H  75,C  45,C  44,H  74)      0.5762         0.028874   
    426. D(H  75,C  45,C  44,C  43)   -179.7831         0.028874   
    427. D(C  46,C  45,C  44,H  74)   -178.6735         0.028874   
    428. D(C  46,C  45,C  44,C  43)      0.9672         0.028874   
    429. D(H  76,C  46,C  45,H  75)     -0.4996         0.026515   
    430. D(H  76,C  46,C  45,C  44)    178.7539         0.026515   
    431. D(C  47,C  46,C  45,H  75)    179.8026         0.026515   
    432. D(C  47,C  46,C  45,C  44)     -0.9439         0.026515   
    433. D(H  77,C  47,C  46,H  76)     -1.1615         0.028710   
    434. D(H  77,C  47,C  46,C  45)    178.5366         0.028710   
    435. D(C  48,C  47,C  46,H  76)    179.7299         0.028710   
    436. D(C  48,C  47,C  46,C  45)     -0.5720         0.028710   
    437. D(C  43,C  48,C  47,H  77)   -177.0703         0.027520   
    438. D(C  43,C  48,C  47,C  46)      2.0326         0.027520   
    439. D(N  36,C  48,C  47,H  77)     -0.8712         0.027520   
    440. D(N  36,C  48,C  47,C  46)    178.2317         0.027520   
    441. D(C  47,C  48,C  43,C  44)     -2.0286         0.022520   
    442. D(C  47,C  48,C  43,C  42)    177.2204         0.022520   
    443. D(N  36,C  48,C  43,C  44)   -178.9265         0.022520   
    444. D(N  36,C  48,C  43,C  42)      0.3225         0.022520   
    445. D(C  47,C  48,N  36,C  37)   -176.6899         0.026357   
    446. D(C  47,C  48,N  36,C  35)      3.4222         0.026357   
    447. D(C  43,C  48,N  36,C  37)     -0.1419         0.026357   
    448. D(C  43,C  48,N  36,C  35)    179.9701         0.026357   
    449. D(H  78,C  49,C  35,N  36)      1.8816         0.025291   
    450. D(H  78,C  49,C  35,C  34)   -178.1175         0.025291   
    451. D(C  50,C  49,C  35,N  36)    179.9866         0.025291   
    452. D(C  50,C  49,C  35,C  34)     -0.0125         0.025291   
    453. D(H  79,C  50,C  49,H  78)     -0.8835         0.030994   
    454. D(H  79,C  50,C  49,C  35)   -178.9704         0.030994   
    455. D(C  32,C  50,C  49,H  78)    178.3127         0.030994   
    456. D(C  32,C  50,C  49,C  35)      0.2258         0.030994   
    457. D(H  79,C  50,C  32,C  33)    178.9601         0.023273   
    458. D(H  79,C  50,C  32,C   0)     -0.9551         0.023273   
    459. D(C  49,C  50,C  32,C  33)     -0.2298         0.023273   
    460. D(C  49,C  50,C  32,C   0)    179.8550         0.023273   
    -----------------------------------------------------------------

Number of atoms                         .... 80
Number of degrees of freedom            .... 460

         *************************************************************
         *                GEOMETRY OPTIMIZATION CYCLE   1            *
         *************************************************************
---------------------------------
CARTESIAN COORDINATES (ANGSTROEM)
---------------------------------
  C     -3.766667    0.636527    0.478353
  C     -2.848837   -0.216165   -0.084689
  C     -1.452721   -0.112402   -0.000232
  C     -0.727615    0.907299    0.697939
  N      0.558601    1.013159    0.770213
  C      1.389264    0.117904    0.159161
  C      2.762771    0.353524    0.309532
  C      3.756555   -0.430229   -0.227975
  C      5.156362   -0.218668   -0.107120
  C      5.731493    0.849268    0.611679
  C      7.093246    1.005907    0.686640
  C      7.950032    0.100448    0.052072
  N      9.332590    0.260558    0.130061
  C     10.246391   -0.732938    0.430416
  C     10.028921   -2.057213    0.784091
  C     11.132795   -2.838044    1.071329
  C     12.424044   -2.318955    1.021908
  C     12.644638   -0.993229    0.701264
  C     11.551688   -0.190301    0.408214
  C     11.410797    1.199782    0.069883
  C     12.320139    2.229893   -0.122501
  C     11.841777    3.476119   -0.479029
  C     10.478634    3.693845   -0.662329
  C      9.554315    2.682784   -0.477357
  C     10.026025    1.436765   -0.088873
  C      7.399883   -0.968952   -0.662404
  C      6.038458   -1.120133   -0.739775
  C      0.809499   -0.964096   -0.573044
  N      1.421037   -1.936494   -1.231175
  S      0.288950   -2.915657   -1.895066
  N     -1.023437   -2.116370   -1.355422
  C     -0.622821   -1.071175   -0.646893
  C     -5.181898    0.520800    0.381815
  C     -5.994463    1.471937    1.032626
  C     -7.364375    1.411128    0.973344
  C     -7.993110    0.386944    0.258556
  N     -9.383557    0.316134    0.196919
  C    -10.237245    1.366389   -0.087796
  C     -9.942388    2.678591   -0.429736
  C    -10.998682    3.527408   -0.702958
  C    -12.318534    3.086567   -0.651104
  C    -12.616833    1.773448   -0.341900
  C    -11.572738    0.903294   -0.062933
  C    -11.514540   -0.496266    0.260349
  C    -12.483695   -1.471469    0.447347
  C    -12.079893   -2.748182    0.787623
  C    -10.731528   -3.050065    0.960399
  C     -9.748641   -2.094869    0.780466
  C    -10.146057   -0.818540    0.407827
  C     -7.205294   -0.566477   -0.394414
  C     -5.835493   -0.500445   -0.336608
  H     -3.408054    1.480486    1.052104
  H     -3.193342   -1.064454   -0.660402
  H     -1.277304    1.677083    1.223694
  H      3.000470    1.228717    0.897866
  H      3.445312   -1.291861   -0.802535
  H      5.093669    1.552096    1.123665
  H      7.516379    1.814855    1.263799
  H      9.031737   -2.464781    0.848621
  H     10.989351   -3.872759    1.344921
  H     13.260816   -2.962078    1.249837
  H     13.643728   -0.584980    0.683527
  H     13.378373    2.055086   -0.001061
  H     12.532043    4.292417   -0.630490
  H     10.135427    4.673254   -0.960732
  H      8.502800    2.857788   -0.645652
  H      8.056600   -1.654486   -1.177149
  H      5.621770   -1.939492   -1.306858
  H     -5.521545    2.259884    1.601064
  H     -7.966467    2.134770    1.502388
  H     -8.922866    3.026210   -0.496734
  H    -10.794532    4.554252   -0.967540
  H    -13.116167    3.781060   -0.868274
  H    -13.638513    1.425728   -0.322575
  H    -13.529976   -1.231545    0.334006
  H    -12.817475   -3.522865    0.934353
  H    -10.446553   -4.051647    1.246130
  H     -8.708831   -2.335537    0.940276
  H     -7.686941   -1.340958   -0.972659
  H     -5.254410   -1.239938   -0.863946

----------------------------
CARTESIAN COORDINATES (A.U.)
----------------------------
  NO LB      ZA    FRAG     MASS         X           Y           Z
   0 C     6.0000    0    12.011   -7.117969    1.202861    0.903955
   1 C     6.0000    0    12.011   -5.383522   -0.408493   -0.160039
   2 C     6.0000    0    12.011   -2.745245   -0.212409   -0.000439
   3 C     6.0000    0    12.011   -1.374992    1.714547    1.318913
   4 N     7.0000    0    14.007    1.055602    1.914594    1.455492
   5 C     6.0000    0    12.011    2.625329    0.222805    0.300770
   6 C     6.0000    0    12.011    5.220880    0.668063    0.584931
   7 C     6.0000    0    12.011    7.098861   -0.813015   -0.430810
   8 C     6.0000    0    12.011    9.744112   -0.413223   -0.202427
   9 C     6.0000    0    12.011   10.830953    1.604884    1.155905
  10 C     6.0000    0    12.011   13.404292    1.900888    1.297562
  11 C     6.0000    0    12.011   15.023383    0.189820    0.098401
  12 N     7.0000    0    14.007   17.636038    0.492383    0.245779
  13 C     6.0000    0    12.011   19.362873   -1.385053    0.813368
  14 C     6.0000    0    12.011   18.951913   -3.887570    1.481717
  15 C     6.0000    0    12.011   21.037933   -5.363127    2.024518
  16 C     6.0000    0    12.011   23.478041   -4.382189    1.931126
  17 C     6.0000    0    12.011   23.894903   -1.876930    1.325197
  18 C     6.0000    0    12.011   21.829526   -0.359617    0.771413
  19 C     6.0000    0    12.011   21.563282    2.267259    0.132061
  20 C     6.0000    0    12.011   23.281689    4.213888   -0.231494
  21 C     6.0000    0    12.011   22.377716    6.568913   -0.905233
  22 C     6.0000    0    12.011   19.801749    6.980356   -1.251620
  23 C     6.0000    0    12.011   18.055039    5.069727   -0.902074
  24 C     6.0000    0    12.011   18.946442    2.715093   -0.167945
  25 C     6.0000    0    12.011   13.983751   -1.831054   -1.251762
  26 C     6.0000    0    12.011   11.411033   -2.116744   -1.397973
  27 C     6.0000    0    12.011    1.529731   -1.821876   -1.082896
  28 N     7.0000    0    14.007    2.685371   -3.659444   -2.326584
  29 S    16.0000    0    32.060    0.546035   -5.509793   -3.581155
  30 N     7.0000    0    14.007   -1.934016   -3.999360   -2.561377
  31 C     6.0000    0    12.011   -1.176961   -2.024228   -1.222451
  32 C     6.0000    0    12.011   -9.792367    0.984170    0.721526
  33 C     6.0000    0    12.011  -11.327893    2.781558    1.951380
  34 C     6.0000    0    12.011  -13.916651    2.666645    1.839354
  35 C     6.0000    0    12.011  -15.104789    0.731219    0.488601
  36 N     7.0000    0    14.007  -17.732353    0.597407    0.372123
  37 C     6.0000    0    12.011  -19.345589    2.582101   -0.165911
  38 C     6.0000    0    12.011  -18.788391    5.061804   -0.812083
  39 C     6.0000    0    12.011  -20.784497    6.665835   -1.328399
  40 C     6.0000    0    12.011  -23.278656    5.832766   -1.230408
  41 C     6.0000    0    12.011  -23.842359    3.351331   -0.646096
  42 C     6.0000    0    12.011  -21.869304    1.706978   -0.118927
  43 C     6.0000    0    12.011  -21.759327   -0.937807    0.491989
  44 C     6.0000    0    12.011  -23.590766   -2.780673    0.845364
  45 C     6.0000    0    12.011  -22.827689   -5.193311    1.488393
  46 C     6.0000    0    12.011  -20.279649   -5.763787    1.814892
  47 C     6.0000    0    12.011  -18.422261   -3.958729    1.474867
  48 C     6.0000    0    12.011  -19.173269   -1.546817    0.770682
  49 C     6.0000    0    12.011  -13.616033   -1.070487   -0.745335
  50 C     6.0000    0    12.011  -11.027485   -0.945704   -0.636096
  51 H     1.0000    0     1.008   -6.440289    2.797712    1.988188
  52 H     1.0000    0     1.008   -6.034543   -2.011527   -1.247980
  53 H     1.0000    0     1.008   -2.413756    3.169227    2.312446
  54 H     1.0000    0     1.008    5.670066    2.321938    1.696720
  55 H     1.0000    0     1.008    6.510697   -2.441264   -1.516571
  56 H     1.0000    0     1.008    9.625639    2.933037    2.123419
  57 H     1.0000    0     1.008   14.203898    3.429578    2.388234
  58 H     1.0000    0     1.008   17.067509   -4.657762    1.603661
  59 H     1.0000    0     1.008   20.766864   -7.318454    2.541533
  60 H     1.0000    0     1.008   25.059311   -5.597516    2.361849
  61 H     1.0000    0     1.008   25.782909   -1.105452    1.291678
  62 H     1.0000    0     1.008   25.281462    3.883550   -0.002005
  63 H     1.0000    0     1.008   23.682130    8.111492   -1.191454
  64 H     1.0000    0     1.008   19.153181    8.831170   -1.815520
  65 H     1.0000    0     1.008   16.067963    5.400437   -1.220105
  66 H     1.0000    0     1.008   15.224767   -3.126525   -2.224488
  67 H     1.0000    0     1.008   10.623605   -3.665108   -2.469604
  68 H     1.0000    0     1.008  -10.434208    4.270562    3.025572
  69 H     1.0000    0     1.008  -15.054442    4.034131    2.839102
  70 H     1.0000    0     1.008  -16.861773    5.718709   -0.938691
  71 H     1.0000    0     1.008  -20.398710    8.606289   -1.828386
  72 H     1.0000    0     1.008  -24.785963    7.145168   -1.640799
  73 H     1.0000    0     1.008  -25.773055    2.694236   -0.609579
  74 H     1.0000    0     1.008  -25.567950   -2.327283    0.631180
  75 H     1.0000    0     1.008  -24.221517   -6.657250    1.765672
  76 H     1.0000    0     1.008  -19.741124   -7.656502    2.354845
  77 H     1.0000    0     1.008  -16.457306   -4.413526    1.776863
  78 H     1.0000    0     1.008  -14.526213   -2.534044   -1.838058
  79 H     1.0000    0     1.008   -9.929396   -2.343144   -1.632622



           ************************************************************
           *        Program running with 40 parallel MPI-processes    *
           *              working on a common directory               *
           ************************************************************
------------------------------------------------------------------------------
                   ___                                                        
                  /   \      - P O W E R E D   B Y -                         
                 /     \                                                     
                 |  |  |   _    _      __       _____    __    __             
                 |  |  |  | |  | |    /  \     |  _  \  |  |  /  |          
                  \  \/   | |  | |   /    \    | | | |  |  | /  /          
                 / \  \   | |__| |  /  /\  \   | |_| |  |  |/  /          
                |  |  |   |  __  | /  /__\  \  |    /   |      \           
                |  |  |   | |  | | |   __   |  |    \   |  |\   \          
                \     /   | |  | | |  |  |  |  | |\  \  |  | \   \       
                 \___/    |_|  |_| |__|  |__|  |_| \__\ |__|  \__/        
                                                                              
                      - O R C A' S   B I G   F R I E N D -                    
                                      &                                       
                       - I N T E G R A L  F E E D E R -                       
                                                                              
 v1 FN, 2020, v2 2021                                                         
------------------------------------------------------------------------------


Reading SHARK input file /dev/shm/slurm.malcolms.9699206/9699206/T1/T1_OPT.SHARKINP.tmp ... ok
----------------------
SHARK INTEGRAL PACKAGE
----------------------

Number of atoms                             ...     80
Number of basis functions                   ...    863
Number of shells                            ...    395
Maximum angular momentum                    ...      2
Integral batch strategy                     ... SHARK/LIBINT Hybrid
RI-J (if used) integral strategy            ... SPLIT-RIJ (Revised 2003 algorithm where possible)
Printlevel                                  ...      1
Contraction scheme used                     ... SEGMENTED contraction
Coulomb Range Separation                    ... NOT USED
Exchange Range Separation                   ... NOT USED
Finite Nucleus Model                        ... NOT USED
Auxiliary Coulomb fitting basis             ... AVAILABLE
   # of basis functions in Aux-J            ...   2820
   # of shells in Aux-J                     ...    912
   Maximum angular momentum in Aux-J        ...      4
Auxiliary J/K fitting basis                 ... NOT available
Auxiliary Correlation fitting basis         ... NOT available
Auxiliary 'external' fitting basis          ... NOT available
Integral threshold                          ...     2.500000e-11
Primitive cut-off                           ...     2.500000e-12
Primitive pair pre-selection threshold      ...     2.500000e-12

Calculating pre-screening integrals         ... done (  0.0 sec) Dimension = 395
Organizing shell pair data                  ... done (  0.2 sec)
Shell pair information
Total number of shell pairs                 ...     78210
Shell pairs after pre-screening             ...     28432
Total number of primitive shell pairs       ...    292226
Primitive shell pairs kept                  ...     66025
          la=0 lb=0:   8410 shell pairs
          la=1 lb=0:  10522 shell pairs
          la=1 lb=1:   3409 shell pairs
          la=2 lb=0:   3479 shell pairs
          la=2 lb=1:   2240 shell pairs
          la=2 lb=2:    372 shell pairs

Calculating one electron integrals          ... done (  0.1 sec)
Calculating RI/J V-Matrix + Cholesky decomp.... done (  0.4 sec)
Calculating Nuclear repulsion               ... done (  0.0 sec) ENN=   5274.854290655452 Eh

SHARK setup successfully completed in   1.1 seconds

Maximum memory used throughout the entire GTOINT-calculation: 51.4 MB


           ************************************************************
           *        Program running with 40 parallel MPI-processes    *
           *              working on a common directory               *
           ************************************************************

Diagonalization of the overlap matrix:
Smallest eigenvalue                        ... 2.152e-04
Time for diagonalization                   ...    0.157 sec
Threshold for overlap eigenvalues          ... 1.000e-08
Number of eigenvalues below threshold      ... 0
Time for construction of square roots      ...    0.102 sec
Total time needed                          ...    0.265 sec

Time for model grid setup =    0.397 sec

Loading Hartree-Fock densities                     ... done
Calculating cut-offs                               ... done
Initializing the effective Hamiltonian             ... done
Setting up the integral package (SHARK)            ... done
Starting the Coulomb interaction                   ... done (   0.2 sec)
Reading the grid                                   ... done
Mapping shells                                     ... done
Starting the XC term evaluation                    ... done (   0.1 sec)
  promolecular density results
     # of electrons  =    349.966559186
     EX              =   -296.672934907
     EC              =    -11.925949282
     EX+EC           =   -308.598884189
Transforming the Hamiltonian                       ... done (   0.1 sec)
Diagonalizing the Hamiltonian                      ... done (   0.2 sec)
Back transforming the eigenvectors                 ... done (   0.0 sec)
Now organizing SCF variables                       ... done
-------------------
DFT GRID GENERATION
-------------------

General Integration Accuracy     IntAcc      ... 4.959
Radial Grid Type                 RadialGrid  ... OptM3 with GC (2021)
Angular Grid (max. ang.)         AngularGrid ... 6 (Lebedev-590)
Angular grid pruning method      GridPruning ... 4 (adaptive)
Weight generation scheme         WeightScheme... Becke
Basis function cutoff            BFCut       ... 1.0000e-11
Integration weight cutoff        WCut        ... 1.0000e-14
Angular grids for H and He will be reduced by one unit
Partially contracted basis set               ... off
Rotationally invariant grid construction     ... off

Total number of grid points                  ...   968311
Total number of batches                      ...    15171
Average number of points per batch           ...       63
Average number of grid points per atom       ...    12104
Time for grid setup =   10.051 sec

--------------------
COSX GRID GENERATION
--------------------

GRIDX 1
-------
General Integration Accuracy     IntAcc      ... 4.020
Radial Grid Type                 RadialGrid  ... OptM3 with GC (2021)
Angular Grid (max. ang.)         AngularGrid ... 2 (Lebedev-110)
Angular grid pruning method      GridPruning ... 4 (adaptive)
Weight generation scheme         WeightScheme... Becke
Basis function cutoff            BFCut       ... 1.0000e-11
Integration weight cutoff        WCut        ... 1.0000e-14
Angular grids for H and He will be reduced by one unit
Partially contracted basis set               ... on
Rotationally invariant grid construction     ... off

Total number of grid points                  ...   110370
Total number of batches                      ...     1762
Average number of points per batch           ...       62
Average number of grid points per atom       ...     1380
UseSFitting                                  ... on

GRIDX 2
-------
General Integration Accuracy     IntAcc      ... 4.338
Radial Grid Type                 RadialGrid  ... OptM3 with GC (2021)
Angular Grid (max. ang.)         AngularGrid ... 3 (Lebedev-194)
Angular grid pruning method      GridPruning ... 4 (adaptive)
Weight generation scheme         WeightScheme... Becke
Basis function cutoff            BFCut       ... 1.0000e-11
Integration weight cutoff        WCut        ... 1.0000e-14
Angular grids for H and He will be reduced by one unit
Partially contracted basis set               ... on
Rotationally invariant grid construction     ... off

Total number of grid points                  ...   242043
Total number of batches                      ...     3817
Average number of points per batch           ...       63
Average number of grid points per atom       ...     3026
UseSFitting                                  ... on

GRIDX 3
-------
General Integration Accuracy     IntAcc      ... 4.871
Radial Grid Type                 RadialGrid  ... OptM3 with GC (2021)
Angular Grid (max. ang.)         AngularGrid ... 4 (Lebedev-302)
Angular grid pruning method      GridPruning ... 4 (adaptive)
Weight generation scheme         WeightScheme... Becke
Basis function cutoff            BFCut       ... 1.0000e-11
Integration weight cutoff        WCut        ... 1.0000e-14
Angular grids for H and He will be reduced by one unit
Partially contracted basis set               ... on
Rotationally invariant grid construction     ... off

Total number of grid points                  ...   445387
Total number of batches                      ...     6995
Average number of points per batch           ...       63
Average number of grid points per atom       ...     5567
UseSFitting                                  ... on

Time for X-Grid setup             =    4.437 sec

--------------
SCF ITERATIONS
--------------
ITER       Energy         Delta-E        Max-DP      RMS-DP      [F,P]     Damp
               ***  Starting incremental Fock matrix formation  ***
  0  -2399.2747708909   0.000000000000 0.10344440  0.00121926  0.1678145 0.7000
  1  -2399.6924443441  -0.417673453264 0.05697999  0.00085801  0.0798555 0.7000
                               ***Turning on DIIS***
  2  -2399.8748530661  -0.182408721968 0.13833855  0.00159347  0.0355351 0.0000
  3  -2400.1403272435  -0.265474177356 0.08920106  0.00055102  0.0460063 0.0000
  4  -2400.2073563265  -0.067029083000 0.01858676  0.00016413  0.0122991 0.0000
  5  -2400.2110319245  -0.003675598075 0.00510764  0.00005532  0.0042108 0.0000
                      *** Initiating the SOSCF procedure ***
                           *** Shutting down DIIS ***
                      *** Re-Reading the Fockian *** 
                      *** Removing any level shift *** 
ITER      Energy       Delta-E        Grad      Rot      Max-DP    RMS-DP
  6  -2400.21141873  -0.0003868104  0.001050  0.001050  0.001786  0.000022
               *** Restarting incremental Fock matrix formation ***
  7  -2400.21143710  -0.0000183631  0.000418  0.002421  0.001904  0.000018
  8  -2400.21144165  -0.0000045472  0.000451  0.001585  0.000813  0.000011
  9  -2400.21145207  -0.0000104278  0.000159  0.000585  0.000554  0.000006
 10  -2400.21145201   0.0000000674  0.000126  0.000586  0.000402  0.000003
 11  -2400.21145346  -0.0000014529  0.000064  0.000451  0.000247  0.000003
 12  -2400.21145320   0.0000002613  0.000078  0.000193  0.000190  0.000002
 13  -2400.21145375  -0.0000005521  0.000017  0.000075  0.000103  0.000001
 14  -2400.21145371   0.0000000402  0.000018  0.000043  0.000057  0.000001
 15  -2400.21145382  -0.0000001157  0.000003  0.000026  0.000041  0.000001
 16  -2400.21145380   0.0000000231  0.000005  0.000017  0.000016  0.000000
                  ***Gradient check signals convergence***
              ***Rediagonalizing the Fockian in SOSCF/NRSCF***

               *****************************************************
               *                     SUCCESS                       *
               *           SCF CONVERGED AFTER  17 CYCLES          *
               *****************************************************

Old exchange energy                            =    -75.403148002 Eh
New exchange energy                            =    -75.403130254 Eh
Exchange energy change after final integration =      0.000017748 Eh
Total energy after final integration           =  -2400.211436079 Eh
Final COS-X integration done in                =    14.100 sec
Total Energy       :        -2400.21143608 Eh          -65313.07363 eV
  Last Energy change         ...   -2.5417e-08  Tolerance :   1.0000e-08
  Last MAX-Density change    ...    4.4409e-15  Tolerance :   1.0000e-07
             **** THE GBW FILE WAS UPDATED (/dev/shm/slurm.malcolms.9699206/9699206/T1/T1_OPT.gbw) ****
             **** DENSITY /dev/shm/slurm.malcolms.9699206/9699206/T1/T1_OPT.scfp WAS UPDATED ****
             **** ENERGY FILE WAS UPDATED (/dev/shm/slurm.malcolms.9699206/9699206/T1/T1_OPT.en.tmp) ****
             **** THE GBW FILE WAS UPDATED (/dev/shm/slurm.malcolms.9699206/9699206/T1/T1_OPT.gbw) ****
             **** DENSITY /dev/shm/slurm.malcolms.9699206/9699206/T1/T1_OPT.scfp WAS UPDATED ****
----------------
ORBITAL ENERGIES
----------------

  NO   OCC          E(Eh)            E(eV) 
   0   2.0000     -89.111696     -2424.8525 
   1   2.0000     -14.453869      -393.3098 
   2   2.0000     -14.452421      -393.2704 
   3   2.0000     -14.438856      -392.9012 
   4   2.0000     -14.435021      -392.7969 
   5   2.0000     -14.397136      -391.7660 
   6   2.0000     -10.298778      -280.2440 
   7   2.0000     -10.298063      -280.2245 
   8   2.0000     -10.296381      -280.1788 
   9   2.0000     -10.293867      -280.1104 
  10   2.0000     -10.293031      -280.0876 
  11   2.0000     -10.279045      -279.7070 
  12   2.0000     -10.277316      -279.6600 
  13   2.0000     -10.277265      -279.6586 
  14   2.0000     -10.276311      -279.6326 
  15   2.0000     -10.276248      -279.6309 
  16   2.0000     -10.263833      -279.2931 
  17   2.0000     -10.257613      -279.1238 
  18   2.0000     -10.257013      -279.1075 
  19   2.0000     -10.253715      -279.0178 
  20   2.0000     -10.253628      -279.0154 
  21   2.0000     -10.253334      -279.0074 
  22   2.0000     -10.252846      -278.9941 
  23   2.0000     -10.252358      -278.9808 
  24   2.0000     -10.252055      -278.9726 
  25   2.0000     -10.252016      -278.9715 
  26   2.0000     -10.251473      -278.9568 
  27   2.0000     -10.251067      -278.9457 
  28   2.0000     -10.250328      -278.9256 
  29   2.0000     -10.249886      -278.9136 
  30   2.0000     -10.244841      -278.7763 
  31   2.0000     -10.239580      -278.6331 
  32   2.0000     -10.239541      -278.6321 
  33   2.0000     -10.239457      -278.6298 
  34   2.0000     -10.239387      -278.6279 
  35   2.0000     -10.239029      -278.6181 
  36   2.0000     -10.238934      -278.6156 
  37   2.0000     -10.238682      -278.6087 
  38   2.0000     -10.238635      -278.6074 
  39   2.0000     -10.238540      -278.6048 
  40   2.0000     -10.238522      -278.6043 
  41   2.0000     -10.238163      -278.5946 
  42   2.0000     -10.238038      -278.5912 
  43   2.0000     -10.237410      -278.5741 
  44   2.0000     -10.237296      -278.5710 
  45   2.0000     -10.236578      -278.5515 
  46   2.0000     -10.236546      -278.5506 
  47   2.0000     -10.231623      -278.4166 
  48   2.0000     -10.231521      -278.4138 
  49   2.0000     -10.230733      -278.3924 
  50   2.0000     -10.230729      -278.3923 
  51   2.0000      -8.109063      -220.6588 
  52   2.0000      -6.052361      -164.6931 
  53   2.0000      -6.044960      -164.4917 
  54   2.0000      -6.043581      -164.4542 
  55   2.0000      -1.065257       -28.9871 
  56   2.0000      -1.033938       -28.1349 
  57   2.0000      -1.032521       -28.0963 
  58   2.0000      -0.978251       -26.6196 
  59   2.0000      -0.926750       -25.2181 
  60   2.0000      -0.908269       -24.7152 
  61   2.0000      -0.907459       -24.6932 
  62   2.0000      -0.878282       -23.8993 
  63   2.0000      -0.878028       -23.8924 
  64   2.0000      -0.876576       -23.8528 
  65   2.0000      -0.875717       -23.8295 
  66   2.0000      -0.852909       -23.2088 
  67   2.0000      -0.840864       -22.8811 
  68   2.0000      -0.827958       -22.5299 
  69   2.0000      -0.818568       -22.2744 
  70   2.0000      -0.805284       -21.9129 
  71   2.0000      -0.792569       -21.5669 
  72   2.0000      -0.789320       -21.4785 
  73   2.0000      -0.788287       -21.4504 
  74   2.0000      -0.777282       -21.1509 
  75   2.0000      -0.774849       -21.0847 
  76   2.0000      -0.773929       -21.0597 
  77   2.0000      -0.759963       -20.6796 
  78   2.0000      -0.746853       -20.3229 
  79   2.0000      -0.740896       -20.1608 
  80   2.0000      -0.740040       -20.1375 
  81   2.0000      -0.722903       -19.6712 
  82   2.0000      -0.706682       -19.2298 
  83   2.0000      -0.681545       -18.5458 
  84   2.0000      -0.677796       -18.4438 
  85   2.0000      -0.663422       -18.0526 
  86   2.0000      -0.655411       -17.8346 
  87   2.0000      -0.653199       -17.7744 
  88   2.0000      -0.650436       -17.6993 
  89   2.0000      -0.644777       -17.5453 
  90   2.0000      -0.627428       -17.0732 
  91   2.0000      -0.626387       -17.0448 
  92   2.0000      -0.625366       -17.0171 
  93   2.0000      -0.612957       -16.6794 
  94   2.0000      -0.602144       -16.3852 
  95   2.0000      -0.598551       -16.2874 
  96   2.0000      -0.596397       -16.2288 
  97   2.0000      -0.595375       -16.2010 
  98   2.0000      -0.574071       -15.6213 
  99   2.0000      -0.568511       -15.4700 
 100   2.0000      -0.565237       -15.3809 
 101   2.0000      -0.559753       -15.2316 
 102   2.0000      -0.544449       -14.8152 
 103   2.0000      -0.541154       -14.7255 
 104   2.0000      -0.540346       -14.7036 
 105   2.0000      -0.530257       -14.4290 
 106   2.0000      -0.526808       -14.3352 
 107   2.0000      -0.517938       -14.0938 
 108   2.0000      -0.513475       -13.9724 
 109   2.0000      -0.506079       -13.7711 
 110   2.0000      -0.493886       -13.4393 
 111   2.0000      -0.491994       -13.3878 
 112   2.0000      -0.486749       -13.2451 
 113   2.0000      -0.484421       -13.1818 
 114   2.0000      -0.479932       -13.0596 
 115   2.0000      -0.476672       -12.9709 
 116   2.0000      -0.475418       -12.9368 
 117   2.0000      -0.474537       -12.9128 
 118   2.0000      -0.471006       -12.8167 
 119   2.0000      -0.467074       -12.7097 
 120   2.0000      -0.460260       -12.5243 
 121   2.0000      -0.457980       -12.4623 
 122   2.0000      -0.457111       -12.4386 
 123   2.0000      -0.456233       -12.4147 
 124   2.0000      -0.454485       -12.3672 
 125   2.0000      -0.451705       -12.2915 
 126   2.0000      -0.447056       -12.1650 
 127   2.0000      -0.446204       -12.1418 
 128   2.0000      -0.444262       -12.0890 
 129   2.0000      -0.440828       -11.9955 
 130   2.0000      -0.439624       -11.9628 
 131   2.0000      -0.435385       -11.8474 
 132   2.0000      -0.434076       -11.8118 
 133   2.0000      -0.422513       -11.4972 
 134   2.0000      -0.422369       -11.4933 
 135   2.0000      -0.412843       -11.2340 
 136   2.0000      -0.410532       -11.1711 
 137   2.0000      -0.408969       -11.1286 
 138   2.0000      -0.404285       -11.0012 
 139   2.0000      -0.401988       -10.9386 
 140   2.0000      -0.395654       -10.7663 
 141   2.0000      -0.384713       -10.4686 
 142   2.0000      -0.383536       -10.4365 
 143   2.0000      -0.382772       -10.4158 
 144   2.0000      -0.381911       -10.3923 
 145   2.0000      -0.381459       -10.3800 
 146   2.0000      -0.378641       -10.3033 
 147   2.0000      -0.377720       -10.2783 
 148   2.0000      -0.372933       -10.1480 
 149   2.0000      -0.369085       -10.0433 
 150   2.0000      -0.361119        -9.8266 
 151   2.0000      -0.359823        -9.7913 
 152   2.0000      -0.354519        -9.6469 
 153   2.0000      -0.353857        -9.6289 
 154   2.0000      -0.353623        -9.6226 
 155   2.0000      -0.352187        -9.5835 
 156   2.0000      -0.342855        -9.3296 
 157   2.0000      -0.331768        -9.0279 
 158   2.0000      -0.326855        -8.8942 
 159   2.0000      -0.318213        -8.6590 
 160   2.0000      -0.310635        -8.4528 
 161   2.0000      -0.303494        -8.2585 
 162   2.0000      -0.302304        -8.2261 
 163   2.0000      -0.290514        -7.9053 
 164   2.0000      -0.288719        -7.8564 
 165   2.0000      -0.287650        -7.8274 
 166   2.0000      -0.277722        -7.5572 
 167   2.0000      -0.274603        -7.4723 
 168   2.0000      -0.273769        -7.4496 
 169   2.0000      -0.261848        -7.1252 
 170   2.0000      -0.233833        -6.3629 
 171   2.0000      -0.232993        -6.3401 
 172   2.0000      -0.228629        -6.2213 
 173   2.0000      -0.217704        -5.9240 
 174   2.0000      -0.198131        -5.3914 
 175   0.0000      -0.120258        -3.2724 
 176   0.0000      -0.064557        -1.7567 
 177   0.0000      -0.049946        -1.3591 
 178   0.0000      -0.034271        -0.9325 
 179   0.0000      -0.033465        -0.9106 
 180   0.0000      -0.018459        -0.5023 
 181   0.0000      -0.017514        -0.4766 
 182   0.0000      -0.001456        -0.0396 
 183   0.0000       0.000340         0.0093 
 184   0.0000       0.001199         0.0326 
 185   0.0000       0.003791         0.1032 
 186   0.0000       0.005871         0.1598 
 187   0.0000       0.020723         0.5639 
 188   0.0000       0.033688         0.9167 
 189   0.0000       0.037972         1.0333 
 190   0.0000       0.038772         1.0550 
 191   0.0000       0.050132         1.3642 
 192   0.0000       0.071873         1.9558 
 193   0.0000       0.074201         2.0191 
 194   0.0000       0.075368         2.0509 
 195   0.0000       0.081656         2.2220 
 196   0.0000       0.082052         2.2327 
 197   0.0000       0.083782         2.2798 
 198   0.0000       0.084884         2.3098 
 199   0.0000       0.087103         2.3702 
 200   0.0000       0.089282         2.4295 
 201   0.0000       0.093667         2.5488 
 202   0.0000       0.104247         2.8367 
 203   0.0000       0.104581         2.8458 
 204   0.0000       0.108973         2.9653 
 205   0.0000       0.122829         3.3423 
 206   0.0000       0.125739         3.4215 
 207   0.0000       0.127641         3.4733 
 208   0.0000       0.131969         3.5911 
 209   0.0000       0.135176         3.6783 
 210   0.0000       0.136547         3.7156 
 211   0.0000       0.137905         3.7526 
 212   0.0000       0.144470         3.9312 
 213   0.0000       0.148012         4.0276 
 214   0.0000       0.153258         4.1704 
 215   0.0000       0.159096         4.3292 
 216   0.0000       0.159860         4.3500 
 217   0.0000       0.161682         4.3996 
 218   0.0000       0.162537         4.4229 
 219   0.0000       0.170149         4.6300 
 220   0.0000       0.173006         4.7077 
 221   0.0000       0.178971         4.8701 
 222   0.0000       0.181933         4.9506 
 223   0.0000       0.185122         5.0374 
 224   0.0000       0.190815         5.1923 
 225   0.0000       0.192084         5.2269 
 226   0.0000       0.193670         5.2700 
 227   0.0000       0.195118         5.3094 
 228   0.0000       0.196087         5.3358 
 229   0.0000       0.198829         5.4104 
 230   0.0000       0.200193         5.4475 
 231   0.0000       0.204043         5.5523 
 232   0.0000       0.212593         5.7850 
 233   0.0000       0.220080         5.9887 
 234   0.0000       0.228100         6.2069 
 235   0.0000       0.237644         6.4666 
 236   0.0000       0.246839         6.7168 
 237   0.0000       0.248116         6.7516 
 238   0.0000       0.249120         6.7789 
 239   0.0000       0.250765         6.8237 
 240   0.0000       0.252366         6.8672 
 241   0.0000       0.258063         7.0223 
 242   0.0000       0.260987         7.1018 
 243   0.0000       0.266412         7.2495 
 244   0.0000       0.266813         7.2603 
 245   0.0000       0.271587         7.3903 
 246   0.0000       0.276295         7.5184 
 247   0.0000       0.278975         7.5913 
 248   0.0000       0.280369         7.6292 
 249   0.0000       0.290036         7.8923 
 250   0.0000       0.296169         8.0592 
 251   0.0000       0.296995         8.0817 
 252   0.0000       0.298945         8.1347 
 253   0.0000       0.302068         8.2197 
 254   0.0000       0.302814         8.2400 
 255   0.0000       0.305937         8.3250 
 256   0.0000       0.310319         8.4442 
 257   0.0000       0.314193         8.5496 
 258   0.0000       0.315106         8.5745 
 259   0.0000       0.317750         8.6464 
 260   0.0000       0.320752         8.7281 
 261   0.0000       0.325135         8.8474 
 262   0.0000       0.329271         8.9599 
 263   0.0000       0.329733         8.9725 
 264   0.0000       0.335870         9.1395 
 265   0.0000       0.340737         9.2719 
 266   0.0000       0.343115         9.3366 
 267   0.0000       0.343371         9.3436 
 268   0.0000       0.344669         9.3789 
 269   0.0000       0.345846         9.4110 
 270   0.0000       0.353050         9.6070 
 271   0.0000       0.355267         9.6673 
 272   0.0000       0.362863         9.8740 
 273   0.0000       0.370829        10.0908 
 274   0.0000       0.376261        10.2386 
 275   0.0000       0.377412        10.2699 
 276   0.0000       0.379174        10.3179 
 277   0.0000       0.380048        10.3416 
 278   0.0000       0.382356        10.4044 
 279   0.0000       0.384827        10.4717 
 280   0.0000       0.390366        10.6224 
 281   0.0000       0.391054        10.6411 
 282   0.0000       0.392254        10.6738 
 283   0.0000       0.395154        10.7527 
 284   0.0000       0.401152        10.9159 
 285   0.0000       0.408353        11.1119 
 286   0.0000       0.411939        11.2094 
 287   0.0000       0.414878        11.2894 
 288   0.0000       0.416412        11.3311 
 289   0.0000       0.419748        11.4219 
 290   0.0000       0.426533        11.6066 
 291   0.0000       0.428496        11.6600 
 292   0.0000       0.432320        11.7640 
 293   0.0000       0.437286        11.8992 
 294   0.0000       0.439862        11.9692 
 295   0.0000       0.443130        12.0582 
[...]
o.k.
Building the Hamiltonian                       ... o.k.
Diagonalizing the Hamiltonian                  ... o.k.
   Size of expansion space: 30
   lowest eigenvalues of A:
    E[ 0] =     0.0319890924 (change=  -0.0000036700)  0.870 eV
    E[ 1] =     0.0732499111 (change=  -0.0000083242)  1.993 eV
    E[ 2] =     0.0820677668 (change=  -0.0000315179)  2.233 eV
    E[ 3] =     0.0894947397 (change=  -0.0004351494)  2.435 eV
    E[ 4] =     0.0963283376 (change=  -0.0000089720)  2.621 eV
   Lowest Energy          :     0.031989092388
   Maximum Energy change  :     0.000435149446 (vector 3)
   Maximum residual norm  :     0.000007181618
   Repeating orthogonalization (< 0|28>=1.451589e-01)
   Repeating orthogonalization (< 1|26>=1.530194e-01)
   Repeating orthogonalization (< 2|30>=3.877669e-01)
   Repeating orthogonalization (< 3|32>=8.630205e-01)
   Repeating orthogonalization (< 4|32>=1.994834e-01)
Storing the current CI vectors                 ... o.k.

                       ****Iteration    4****

Building the sigma vectors                     ...    Time for densities:            0.134
Average shell size            =     8.166 au
Total number of shells        =       395    
Av no of R-interacting shells =       176 
Av no of P-interacting shells =       395 
Av no of primary shells       =        98 
Av no of secondary shells     =       395 
Av no of tertiary shells      =       395 
Integration Timings:
Total Time                    =     3.6 sec
Basis fcn evaluation          =     0.0 sec
Density evaluation            =     0.2 sec
Integral evaluation           =     3.3 sec
K(P) evaluation               =     0.1 sec
   Time for K (COSX):             3.887
   Time for XC-Integration:       0.567
   Time for Sigma-Completion:     0.083
o.k.
Building the Hamiltonian                       ... o.k.
Diagonalizing the Hamiltonian                  ... o.k.
   Size of expansion space: 35
   lowest eigenvalues of A:
    E[ 0] =     0.0319889810 (change=  -0.0000001114)  0.870 eV
    E[ 1] =     0.0732495196 (change=  -0.0000003914)  1.993 eV
    E[ 2] =     0.0820655729 (change=  -0.0000021939)  2.233 eV
    E[ 3] =     0.0894685485 (change=  -0.0000261912)  2.435 eV
    E[ 4] =     0.0963264159 (change=  -0.0000019217)  2.621 eV
   Lowest Energy          :     0.031988981003
   Maximum Energy change  :     0.000026191208 (vector 3)
   Maximum residual norm  :     0.000000341311
   Repeating orthogonalization (< 0|30>=1.726083e-01)
   Repeating orthogonalization (< 1|31>=3.723151e-01)
   Repeating orthogonalization (< 2|35>=4.900455e-01)
   Repeating orthogonalization (< 3|37>=8.298893e-01)
   Repeating orthogonalization (< 4|37>=3.781311e-01)
Storing the current CI vectors                 ... o.k.

                       ****Iteration    5****

Building the sigma vectors                     ...    Time for densities:            0.134
Average shell size            =     8.166 au
Total number of shells        =       395    
Av no of R-interacting shells =       176 
Av no of P-interacting shells =       395 
Av no of primary shells       =        98 
Av no of secondary shells     =       395 
Av no of tertiary shells      =       395 
Integration Timings:
Total Time                    =     3.6 sec
Basis fcn evaluation          =     0.0 sec
Density evaluation            =     0.1 sec
Integral evaluation           =     3.3 sec
K(P) evaluation               =     0.1 sec
   Time for K (COSX):             3.871
   Time for XC-Integration:       0.572
   Time for Sigma-Completion:     0.083
o.k.
Building the Hamiltonian                       ... o.k.
Diagonalizing the Hamiltonian                  ... o.k.
   Size of expansion space: 40
   lowest eigenvalues of A:
    E[ 0] =     0.0319889776 (change=  -0.0000000034)  0.870 eV
    E[ 1] =     0.0732494913 (change=  -0.0000000283)  1.993 eV
    E[ 2] =     0.0820654627 (change=  -0.0000001103)  2.233 eV
    E[ 3] =     0.0894672073 (change=  -0.0000013413)  2.434 eV
    E[ 4] =     0.0961465343 (change=  -0.0001798816)  2.616 eV
   Lowest Energy          :     0.031988977590
   Maximum Energy change  :     0.000179881633 (vector 4)
   Maximum residual norm  :     0.000036102170
   Repeating orthogonalization (< 0|35>=2.099066e-01)
   Repeating orthogonalization (< 1|36>=3.722659e-01)
   Repeating orthogonalization (< 2|41>=2.633667e-01)
   Repeating orthogonalization (< 3|42>=9.041353e-01)
   Repeating orthogonalization (< 4|42>=4.281561e-01)
Storing the current CI vectors                 ... o.k.

                       ****Iteration    6****

Building the sigma vectors                     ...    Time for densities:            0.135
Average shell size            =     8.166 au
Total number of shells        =       395    
Av no of R-interacting shells =       176 
Av no of P-interacting shells =       395 
Av no of primary shells       =        98 
Av no of secondary shells     =       395 
Av no of tertiary shells      =       395 
Integration Timings:
Total Time                    =     3.7 sec
Basis fcn evaluation          =     0.0 sec
Density evaluation            =     0.1 sec
Integral evaluation           =     3.3 sec
K(P) evaluation               =     0.1 sec
   Time for K (COSX):             3.885
   Time for XC-Integration:       0.575
   Time for Sigma-Completion:     0.083
o.k.
Building the Hamiltonian                       ... o.k.
Diagonalizing the Hamiltonian                  ... o.k.
   Size of expansion space: 45
   lowest eigenvalues of A:
    E[ 0] =     0.0319889775 (change=  -0.0000000001)  0.870 eV
    E[ 1] =     0.0732494898 (change=  -0.0000000015)  1.993 eV
    E[ 2] =     0.0820654561 (change=  -0.0000000066)  2.233 eV
    E[ 3] =     0.0894670797 (change=  -0.0000001276)  2.434 eV
    E[ 4] =     0.0960156592 (change=  -0.0001308751)  2.613 eV
   Lowest Energy          :     0.031988977511
   Maximum Energy change  :     0.000130875051 (vector 4)
   Maximum residual norm  :     0.000003069844
   Repeating orthogonalization (< 0| 1>=4.586755e-01)
   Repeating orthogonalization (< 1|41>=3.195096e-01)
   Repeating orthogonalization (< 2| 1>=3.227649e-01)
   Repeating orthogonalization (< 3|47>=8.988444e-01)
   Repeating orthogonalization (< 4|47>=5.852957e-01)
Storing the current CI vectors                 ... o.k.

                       ****Iteration    7****

Building the sigma vectors                     ...    Time for densities:            0.134
Average shell size            =     8.166 au
Total number of shells        =       395    
Av no of R-interacting shells =       176 
Av no of P-interacting shells =       395 
Av no of primary shells       =        98 
Av no of secondary shells     =       395 
Av no of tertiary shells      =       395 
Integration Timings:
Total Time                    =     3.7 sec
Basis fcn evaluation          =     0.0 sec
Density evaluation            =     0.1 sec
Integral evaluation           =     3.3 sec
K(P) evaluation               =     0.1 sec
   Time for K (COSX):             3.888
   Time for XC-Integration:       0.578
   Time for Sigma-Completion:     0.083
o.k.
Building the Hamiltonian                       ... o.k.
Diagonalizing the Hamiltonian                  ... o.k.
   Size of expansion space: 50
   lowest eigenvalues of A:
    E[ 0] =     0.0319889775 (change=  -0.0000000000)  0.870 eV
    E[ 1] =     0.0732494898 (change=  -0.0000000001)  1.993 eV
    E[ 2] =     0.0820654557 (change=  -0.0000000003)  2.233 eV
    E[ 3] =     0.0894670704 (change=  -0.0000000093)  2.434 eV
    E[ 4] =     0.0960074142 (change=  -0.0000082450)  2.612 eV
   Lowest Energy          :     0.031988977510
   Maximum Energy change  :     0.000008245024 (vector 4)
   Maximum residual norm  :     0.000000088625

      *** CONVERGENCE OF RESIDUAL NORM REACHED ***

Storing the converged CI vectors               ... /dev/shm/slurm.malcolms.9699206/9699206/T1/T1_OPT.cis3

                 *** DAVIDSON DONE ***

------------------------------------
TD-DFT/TDA EXCITED STATES (TRIPLETS)
------------------------------------

the weight of the individual excitations are printed if larger than 1.0e-02

STATE  1:  E=   0.031989 au      0.870 eV     7020.8 cm**-1 <S**2> =   2.000000
   172a -> 175a  :     0.095565 (c= -0.30913571)
   174a -> 175a  :     0.859026 (c=  0.92683678)

STATE  2:  E=   0.073249 au      1.993 eV    16076.4 cm**-1 <S**2> =   2.000000
   169a -> 175a  :     0.087608 (c=  0.29598681)
   173a -> 175a  :     0.841616 (c=  0.91739616)
   174a -> 177a  :     0.041951 (c=  0.20481964)

STATE  3:  E=   0.082065 au      2.233 eV    18011.3 cm**-1 <S**2> =   2.000000
   163a -> 175a  :     0.030028 (c=  0.17328692)
   172a -> 175a  :     0.818756 (c= -0.90485128)
   173a -> 177a  :     0.010618 (c= -0.10304592)
   174a -> 175a  :     0.098261 (c= -0.31346561)
   174a -> 176a  :     0.025633 (c= -0.16010323)

STATE  4:  E=   0.089467 au      2.435 eV    19635.8 cm**-1 <S**2> =   2.000000
   157a -> 175a  :     0.013538 (c=  0.11635176)
   163a -> 175a  :     0.019411 (c=  0.13932293)
   169a -> 175a  :     0.025047 (c= -0.15826122)
   169a -> 177a  :     0.021556 (c= -0.14681865)
   172a -> 175a  :     0.022661 (c=  0.15053624)
   172a -> 176a  :     0.059678 (c=  0.24429104)
   173a -> 175a  :     0.033178 (c=  0.18214918)
   174a -> 175a  :     0.018619 (c=  0.13645032)
   174a -> 176a  :     0.680964 (c= -0.82520561)
   174a -> 177a  :     0.044318 (c= -0.21051743)

STATE  5:  E=   0.096007 au      2.612 eV    21071.2 cm**-1 <S**2> =   2.000000
   158a -> 175a  :     0.014042 (c=  0.11849996)
   163a -> 175a  :     0.013841 (c= -0.11764763)
   169a -> 175a  :     0.341283 (c= -0.58419392)
   169a -> 176a  :     0.028690 (c= -0.16938208)
   169a -> 177a  :     0.011615 (c=  0.10777285)
   172a -> 177a  :     0.033432 (c=  0.18284327)
   173a -> 175a  :     0.108248 (c=  0.32901028)
   174a -> 176a  :     0.078550 (c=  0.28026770)
   174a -> 177a  :     0.290812 (c= -0.53927023)


-----------------------------
TD-DFT/TDA-EXCITATION SPECTRA
-----------------------------

Center of mass = ( -0.0045, -0.0043, -0.0426)
Calculating the Dipole integrals                  ... done
Transforming integrals                            ... done
Calculating the Linear Momentum integrals         ... done
Transforming integrals                            ... done
Calculating angular momentum integrals            ... done
Transforming integrals                            ... done

-----------------------------------------------------------------------------
         ABSORPTION SPECTRUM VIA TRANSITION ELECTRIC DIPOLE MOMENTS
-----------------------------------------------------------------------------
State   Energy    Wavelength  fosc         T2        TX        TY        TZ  
        (cm-1)      (nm)                 (au**2)    (au)      (au)      (au) 
-----------------------------------------------------------------------------
   1   15473.2    646.3   1.606169726  34.17326   5.84554  -0.03611  -0.03986
   2   18219.6    548.9   0.017419957   0.31476  -0.42958  -0.29316  -0.21043
   3   20734.4    482.3   0.054843993   0.87079   0.93176  -0.04167  -0.02976
   4   21230.3    471.0   0.000025706   0.00040   0.00315  -0.01835   0.00722
   5   21342.4    468.6   0.000021765   0.00034  -0.00222   0.01695  -0.00660
   6    7020.8   1424.3   spin forbidden (mult=3)
   7   16076.4    622.0   spin forbidden (mult=3)
   8   18011.3    555.2   spin forbidden (mult=3)
   9   19635.8    509.3   spin forbidden (mult=3)
  10   21071.2    474.6   spin forbidden (mult=3)

-----------------------------------------------------------------------------
         ABSORPTION SPECTRUM VIA TRANSITION VELOCITY DIPOLE MOMENTS
-----------------------------------------------------------------------------
State   Energy    Wavelength   fosc        P2         PX        PY        PZ  
        (cm-1)      (nm)                 (au**2)     (au)      (au)      (au) 
-----------------------------------------------------------------------------
   1   15473.2    646.3   0.416754680   0.04407  -0.20939  -0.01269  -0.00809
   2   18219.6    548.9   0.006513364   0.00081   0.02816   0.00339   0.00254
   3   20734.4    482.3   0.001136398   0.00016  -0.01043  -0.00590  -0.00418
   4   21230.3    471.0   0.000079369   0.00001   0.00016  -0.00245   0.00235
   5   21342.4    468.6   0.000064773   0.00001   0.00009   0.00228  -0.00206
   6    7020.8   1424.3   spin forbidden (mult=3)
   7   16076.4    622.0   spin forbidden (mult=3)
   8   18011.3    555.2   spin forbidden (mult=3)
   9   19635.8    509.3   spin forbidden (mult=3)
  10   21071.2    474.6   spin forbidden (mult=3)

-------------------------------------------------------------------
                             CD SPECTRUM
-------------------------------------------------------------------
State  Energy     Wavelength     R         MX        MY        MZ   
       (cm-1)       (nm)     (1e40*cgs)   (au)      (au)      (au)  
-------------------------------------------------------------------
   1   15473.2    646.3      0.79980   0.00011   0.07378  -0.09397
   2   18219.6    548.9      6.57626  -0.02669   0.00757  -0.02234
   3   20734.4    482.3      0.59305   0.00143   0.07953  -0.10891
   4   21230.3    471.0     -0.20553   0.00834   0.00176  -0.05957
   5   21342.4    468.6      0.18250   0.00465   0.00233  -0.05422
   6    7020.8   1424.3 spin forbidden
   7   16076.4    622.0 spin forbidden
   8   18011.3    555.2 spin forbidden
   9   19635.8    509.3 spin forbidden
  10   21071.2    474.6 spin forbidden

-------------------------------------------------------------------
         CD SPECTRUM VIA TRANSITION VELOCITY DIPOLE MOMENTS        
-------------------------------------------------------------------
State  Energy     Wavelength     R         MX        MY        MZ   
       (cm-1)       (nm)     (1e40*cgs)   (au)      (au)      (au)  
-------------------------------------------------------------------
   1   15473.2    646.3     -1.32051   0.00011   0.07378  -0.09397
   2   18219.6    548.9     -4.44567  -0.02669   0.00757  -0.02234
   3   20734.4    482.3     -0.14599   0.00143   0.07953  -0.10891
   4   21230.3    471.0     -0.69610   0.00834   0.00176  -0.05957
   5   21342.4    468.6      0.56983   0.00465   0.00233  -0.05422
   6    7020.8   1424.3 spin forbidden
   7   16076.4    622.0 spin forbidden
   8   18011.3    555.2 spin forbidden
   9   19635.8    509.3 spin forbidden
  10   21071.2    474.6 spin forbidden

Total run time:       94.170 sec

           *** ORCA-CIS/TD-DFT FINISHED WITHOUT ERROR ***

Maximum memory used throughout the entire CIS-calculation: 439.4 MB

-----------------------
CIS/TD-DFT TOTAL ENERGY
-----------------------

    E(SCF)  =  -2400.218494037 Eh
    DE(CIS) =      0.031988978 Eh (Triplet root  1)
    ----------------------------- ---------
    E(tot)  =  -2400.186505060 Eh



-------------------------------------------------------------------------------
                          DFT DISPERSION CORRECTION                            
                                                                               
                              DFTD3 V3.1  Rev 1                                
                          USING Becke-Johnson damping                          
-------------------------------------------------------------------------------
-------------------------   ----------------
Dispersion correction           -0.109967787
-------------------------   ----------------


-------------------------   --------------------
FINAL SINGLE POINT ENERGY     -2400.296472847090
-------------------------   --------------------

                                *** OPTIMIZATION RUN DONE ***

                            ***************************************
                            *     ORCA property calculations      *
                            ***************************************

                                    ---------------------
                                    Active property flags
                                    ---------------------
   (+) Dipole Moment


------------------------------------------------------------------------------
                       ORCA ELECTRIC PROPERTIES CALCULATION
------------------------------------------------------------------------------

Dipole Moment Calculation                       ... on
Quadrupole Moment Calculation                   ... off
Polarizability Calculation                      ... off
GBWName                                         ... /dev/shm/slurm.malcolms.9699206/9699206/T1/T1_OPT.gbw
Electron density                                ... /dev/shm/slurm.malcolms.9699206/9699206/T1/T1_OPT.scfp
The origin for moment calculation is the CENTER OF MASS  = (-0.004459, -0.004297 -0.042625)

-------------
DIPOLE MOMENT
-------------
                                X             Y             Z
Electronic contribution:      1.85737      -9.13474      -6.48943
Nuclear contribution   :     -1.82848       8.88761       6.31397
                        -----------------------------------------
Total Dipole Moment    :      0.02889      -0.24713      -0.17546
                        -----------------------------------------
Magnitude (a.u.)       :      0.30446
Magnitude (Debye)      :      0.77387



--------------------
Rotational spectrum 
--------------------
 
Rotational constants in cm-1:     0.006334     0.000343     0.000331 
Rotational constants in MHz :   189.893481    10.277146     9.919815 

 Dipole components along the rotational axes: 
x,y,z [a.u.] :     0.028872    -0.250219    -0.171027 
x,y,z [Debye]:     0.073387    -0.636007    -0.434716 

 

                        *** CIS RELAXED DENSITY ***

------------------------------------------------------------------------------
                       ORCA ELECTRIC PROPERTIES CALCULATION
------------------------------------------------------------------------------

Dipole Moment Calculation                       ... on
Quadrupole Moment Calculation                   ... off
Polarizability Calculation                      ... off
GBWName                                         ... /dev/shm/slurm.malcolms.9699206/9699206/T1/T1_OPT.gbw
Electron density                                ... /dev/shm/slurm.malcolms.9699206/9699206/T1/T1_OPT.cisp
The origin for moment calculation is the CENTER OF MASS  = (-0.004459, -0.004297 -0.042625)

-------------
DIPOLE MOMENT
-------------
                                X             Y             Z
Electronic contribution:      1.04909      -8.62306      -6.11016
Nuclear contribution   :     -1.82848       8.88761       6.31397
                        -----------------------------------------
Total Dipole Moment    :     -0.77940       0.26455       0.20381
                        -----------------------------------------
Magnitude (a.u.)       :      0.84793
Magnitude (Debye)      :      2.15527



--------------------
Rotational spectrum 
--------------------
 
Rotational constants in cm-1:     0.006334     0.000343     0.000331 
Rotational constants in MHz :   189.893481    10.277146     9.919815 

 Dipole components along the rotational axes: 
x,y,z [a.u.] :    -0.779380     0.268220     0.199021 
x,y,z [Debye]:    -1.981027     0.681761     0.505872 

 

Timings for individual modules:

Sum of individual times         ...     1613.346 sec (=  26.889 min)
GTO integral calculation        ...       14.843 sec (=   0.247 min)   0.9 %
SCF iterations                  ...      614.260 sec (=  10.238 min)  38.1 %
CIS module                      ...      471.262 sec (=   7.854 min)  29.2 %
SCF Gradient evaluation         ...      511.441 sec (=   8.524 min)  31.7 %
Geometry relaxation             ...        1.540 sec (=   0.026 min)   0.1 %
                             ****ORCA TERMINATED NORMALLY****
TOTAL RUN TIME: 0 days 0 hours 27 minutes 2 seconds 934 msec
