
                                 *****************
                                 * O   R   C   A *
                                 *****************

                                            #,                                       
                                            ###                                      
                                            ####                                     
                                            #####                                    
                                            ######                                   
                                           ########,                                 
                                     ,,################,,,,,                         
                               ,,#################################,,                 
                          ,,##########################################,,             
                       ,#########################################, ''#####,          
                    ,#############################################,,   '####,        
                  ,##################################################,,,,####,       
                ,###########''''           ''''###############################       
              ,#####''   ,,,,##########,,,,          '''####'''          '####       
            ,##' ,,,,###########################,,,                        '##       
           ' ,,###''''                  '''############,,,                           
         ,,##''                                '''############,,,,        ,,,,,,###''
      ,#''                                            '''#######################'''  
     '                                                          ''''####''''         
             ,#######,   #######,   ,#######,      ##                                
            ,#'     '#,  ##    ##  ,#'     '#,    #''#        ######   ,####,        
            ##       ##  ##   ,#'  ##            #'  '#       #        #'  '#        
            ##       ##  #######   ##           ,######,      #####,   #    #        
            '#,     ,#'  ##    ##  '#,     ,#' ,#      #,         ##   #,  ,#        
             '#######'   ##     ##  '#######'  #'      '#     #####' # '####'        



                  #######################################################
                  #                        -***-                        #
                  #          Department of theory and spectroscopy      #
                  #    Directorship and core code : Frank Neese         #
                  #        Max Planck Institute fuer Kohlenforschung    #
                  #                Kaiser Wilhelm Platz 1               #
                  #                 D-45470 Muelheim/Ruhr               #
                  #                      Germany                        #
                  #                                                     #
                  #                  All rights reserved                #
                  #                        -***-                        #
                  #######################################################


                         Program Version 5.0.3 -  RELEASE  -


 With contributions from (in alphabetic order):
   Daniel Aravena         : Magnetic Suceptibility
   Michael Atanasov       : Ab Initio Ligand Field Theory (pilot matlab implementation)
   Alexander A. Auer      : GIAO ZORA, VPT2 properties, NMR spectrum
   Ute Becker             : Parallelization
   Giovanni Bistoni       : ED, misc. LED, open-shell LED, HFLD
   Martin Brehm           : Molecular dynamics
   Dmytro Bykov           : SCF Hessian
   Vijay G. Chilkuri      : MRCI spin determinant printing, contributions to CSF-ICE
   Dipayan Datta          : RHF DLPNO-CCSD density
   Achintya Kumar Dutta   : EOM-CC, STEOM-CC
   Dmitry Ganyushin       : Spin-Orbit,Spin-Spin,Magnetic field MRCI
   Miquel Garcia          : C-PCM and meta-GGA Hessian, CC/C-PCM, Gaussian charge scheme
   Yang Guo               : DLPNO-NEVPT2, F12-NEVPT2, CIM, IAO-localization
   Andreas Hansen         : Spin unrestricted coupled pair/coupled cluster methods
   Benjamin Helmich-Paris : MC-RPA, TRAH-SCF, COSX integrals
   Lee Huntington         : MR-EOM, pCC
   Robert Izsak           : Overlap fitted RIJCOSX, COSX-SCS-MP3, EOM
   Marcus Kettner         : VPT2
   Christian Kollmar      : KDIIS, OOCD, Brueckner-CCSD(T), CCSD density, CASPT2, CASPT2-K
   Simone Kossmann        : Meta GGA functionals, TD-DFT gradient, OOMP2, MP2 Hessian
   Martin Krupicka        : Initial AUTO-CI
   Lucas Lang             : DCDCAS
   Marvin Lechner         : AUTO-CI (C++ implementation), FIC-MRCC
   Dagmar Lenk            : GEPOL surface, SMD
   Dimitrios Liakos       : Extrapolation schemes; Compound Job, initial MDCI parallelization
   Dimitrios Manganas     : Further ROCIS development; embedding schemes
   Dimitrios Pantazis     : SARC Basis sets
   Anastasios Papadopoulos: AUTO-CI, single reference methods and gradients
   Taras Petrenko         : DFT Hessian,TD-DFT gradient, ASA, ECA, R-Raman, ABS, FL, XAS/XES, NRVS
   Peter Pinski           : DLPNO-MP2, DLPNO-MP2 Gradient
   Christoph Reimann      : Effective Core Potentials
   Marius Retegan         : Local ZFS, SOC
   Christoph Riplinger    : Optimizer, TS searches, QM/MM, DLPNO-CCSD(T), (RO)-DLPNO pert. Triples
   Tobias Risthaus        : Range-separated hybrids, TD-DFT gradient, RPA, STAB
   Michael Roemelt        : Original ROCIS implementation
   Masaaki Saitow         : Open-shell DLPNO-CCSD energy and density
   Barbara Sandhoefer     : DKH picture change effects
   Avijit Sen             : IP-ROCIS
   Kantharuban Sivalingam : CASSCF convergence, NEVPT2, FIC-MRCI
   Bernardo de Souza      : ESD, SOC TD-DFT
   Georgi Stoychev        : AutoAux, RI-MP2 NMR, DLPNO-MP2 response
   Willem Van den Heuvel  : Paramagnetic NMR
   Boris Wezisla          : Elementary symmetry handling
   Frank Wennmohs         : Technical directorship


 We gratefully acknowledge several colleagues who have allowed us to
 interface, adapt or use parts of their codes:
   Stefan Grimme, W. Hujo, H. Kruse, P. Pracht,  : VdW corrections, initial TS optimization,
                  C. Bannwarth, S. Ehlert          DFT functionals, gCP, sTDA/sTD-DF
   Ed Valeev, F. Pavosevic, A. Kumar             : LibInt (2-el integral package), F12 methods
   Garnet Chan, S. Sharma, J. Yang, R. Olivares  : DMRG
   Ulf Ekstrom                                   : XCFun DFT Library
   Mihaly Kallay                                 : mrcc  (arbitrary order and MRCC methods)
   Jiri Pittner, Ondrej Demel                    : Mk-CCSD
   Frank Weinhold                                : gennbo (NPA and NBO analysis)
   Christopher J. Cramer and Donald G. Truhlar   : smd solvation model
   Lars Goerigk                                  : TD-DFT with DH, B97 family of functionals
   V. Asgeirsson, H. Jonsson                     : NEB implementation
   FAccTs GmbH                                   : IRC, NEB, NEB-TS, DLPNO-Multilevel, CI-OPT
                                                   MM, QMMM, 2- and 3-layer-ONIOM, Crystal-QMMM,
                                                   LR-CPCM, SF, NACMEs, symmetry and pop. for TD-DFT,
                                                   nearIR, NL-DFT gradient (VV10), updates on ESD,
                                                   ML-optimized integration grids
   S Lehtola, MJT Oliveira, MAL Marques          : LibXC Library
   Liviu Ungur et al                             : ANISO software


 Your calculation uses the libint2 library for the computation of 2-el integrals
 For citations please refer to: http://libint.valeyev.net

 Your ORCA version has been built with support for libXC version: 5.1.0
 For citations please refer to: https://tddft.org/programs/libxc/

 This ORCA versions uses:
   CBLAS   interface :  Fast vector & matrix operations
   LAPACKE interface :  Fast linear algebra routines
   SCALAPACK package :  Parallel linear algebra routines
   Shared memory     :  Shared parallel matrices
   BLAS/LAPACK       :  OpenBLAS 0.3.15  USE64BITINT DYNAMIC_ARCH NO_AFFINITY SkylakeX SINGLE_THREADED
        Core in use  :  SkylakeX
   Copyright (c) 2011-2014, The OpenBLAS Project




***************************************
The coordinates will be read from file: S0_XTB_OPT_XYZ.xyz
***************************************


Your calculation utilizes the atom-pairwise dispersion correction
with the Becke-Johnson damping scheme (D3BJ)
Cite in your paper:
S.Grimme, S.Ehrlich, L.Goerigk, J Comput Chem, (2011), 32, 1456–1465 
S.Grimme, J.Antony, S.Ehrlich and H.Krieg, J.Chem.Phys., 132, (2010), 154104 
   

================================================================================

----- Orbital basis set information -----
Your calculation utilizes the basis: def2-SVP
   F. Weigend and R. Ahlrichs, Phys. Chem. Chem. Phys. 7, 3297 (2005).

----- AuxJ basis set information -----
Your calculation utilizes the auxiliary basis: def2/J
   F. Weigend, Phys. Chem. Chem. Phys. 8, 1057 (2006).

================================================================================
                                        WARNINGS
                       Please study these warnings very carefully!
================================================================================

INFO   : Checking CIS options ...

WARNING: CIS/ROCIS methods need fully converged wavefunctions
  ===> : Setting SCFConvForced true
         You can overwrite this default with %scf ConvForced false 


INFO   : the flag for use of the SHARK integral package has been found!

================================================================================
                                       INPUT FILE
================================================================================
NAME = /dev/shm/slurm.malcolms.9869179/9869179/S1/S1_OPT.inp
|  1> ! PBE0 def2-SVP D3BJ def2/J RIJCOSX tightSCF noautostart miniprint nopop defgrid3 Opt
|  2> %maxcore    4000
|  3> %pal    nprocs  40  end
|  4> %geom	Convergence	loose
|  5> 	MaxIter	5
|  6> end
|  7> %tddft  PrintLevel  3
|  8> 	IRootMult	Singlet
|  9> 	NRoots	5
| 10> 	IRoot	1
| 11> 	TDA	True
| 12>         MaxDim  10
| 13> end
| 14> * xyzfile 0 1 S0_XTB_OPT_XYZ.xyz
| 15> 
| 16> 
| 17>                          ****END OF INPUT****
================================================================================

                       *****************************
                       * Geometry Optimization Run *
                       *****************************

Geometry optimization settings:
Update method            Update   .... BFGS
Choice of coordinates    CoordSys .... Z-matrix Internals
Initial Hessian          InHess   .... Almoef's Model

Convergence Tolerances:
Energy Change            TolE     ....  3.0000e-05 Eh
Max. Gradient            TolMAXG  ....  2.0000e-03 Eh/bohr
RMS Gradient             TolRMSG  ....  5.0000e-04 Eh/bohr
Max. Displacement        TolMAXD  ....  1.0000e-02 bohr
RMS Displacement         TolRMSD  ....  7.0000e-03 bohr
Strict Convergence                ....  False
------------------------------------------------------------------------------
                        ORCA OPTIMIZATION COORDINATE SETUP
------------------------------------------------------------------------------

The optimization will be done in new redundant internal coordinates
Making redundant internal coordinates   ...  (new redundants) done
Evaluating the initial hessian          ...  (Almloef) done
Evaluating the coordinates              ...  done
Calculating the B-matrix                .... done
Calculating the G-matrix                .... done
Diagonalizing the G-matrix              .... done
Small eigenvalue found = 1.151e-04
Small eigenvalue found = 4.338e-04
Small eigenvalue found = 7.200e-04
Small eigenvalue found = 1.579e-03
Small eigenvalue found = 2.149e-03
Small eigenvalue found = 2.472e-03
Small eigenvalue found = 4.476e-03
Small eigenvalue found = 6.154e-03
Small eigenvalue found = 6.283e-03
Small eigenvalue found = 9.510e-03
Small eigenvalue found = 1.125e-02
Small eigenvalue found = 1.981e-02
Small eigenvalue found = 2.008e-02
Small eigenvalue found = 2.826e-02
Small eigenvalue found = 2.878e-02
The first mode is                       ....  284
The number of degrees of freedom        ....  285

    -----------------------------------------------------------------
                    Redundant Internal Coordinates


    -----------------------------------------------------------------
         Definition                    Initial Value    Approx d2E/dq
    -----------------------------------------------------------------
      1. B(C   1,C   0)                  1.5317         0.371282   
      2. B(C   2,C   1)                  1.5318         0.371172   
      3. B(C   3,C   1)                  1.5129         0.397859   
      4. B(C   4,C   3)                  1.3724         0.666416   
      5. B(C   5,C   4)                  1.4026         0.596585   
      6. B(C   6,C   5)                  1.4478         0.505314   
      7. B(C   7,C   6)                  1.3426         0.743503   
      8. B(C   8,C   7)                  1.4479         0.505032   
      9. B(C   9,C   8)                  1.3986         0.605364   
     10. B(C  10,C   9)                  1.3779         0.653241   
     11. B(C  11,C  10)                  1.3935         0.616718   
     12. B(N  12,C  11)                  1.3997         0.540025   
     13. B(C  13,N  12)                  1.3811         0.578155   
     14. B(C  14,C  13)                  1.3876         0.630279   
     15. B(C  15,C  14)                  1.3817         0.644212   
     16. B(C  16,C  15)                  1.3931         0.617609   
     17. B(C  17,C  16)                  1.3804         0.647132   
     18. B(C  18,C  17)                  1.3886         0.628023   
     19. B(C  18,C  13)                  1.4139         0.572341   
     20. B(C  19,C  18)                  1.4360         0.527572   
     21. B(C  20,C  19)                  1.3886         0.628059   
     22. B(C  21,C  20)                  1.3804         0.647141   
     23. B(C  22,C  21)                  1.3931         0.617612   
     24. B(C  23,C  22)                  1.3817         0.644168   
     25. B(C  24,C  23)                  1.3876         0.630324   
     26. B(C  24,C  19)                  1.4139         0.572254   
     27. B(C  24,N  12)                  1.3811         0.578218   
     28. B(C  25,C  11)                  1.3928         0.618363   
     29. B(C  26,C  25)                  1.3778         0.653465   
     30. B(C  26,C   8)                  1.3995         0.603319   
     31. B(C  27,C   5)                  1.4014         0.599097   
     32. B(C  28,C  27)                  1.3804         0.647327   
     33. B(C  29,C  28)                  1.3868         0.632102   
     34. B(C  29,C   3)                  1.4049         0.591444   
     35. B(C  30,C  29)                  1.4480         0.504893   
     36. B(C  31,C  30)                  1.3868         0.632106   
     37. B(C  32,C  31)                  1.3804         0.647334   
     38. B(C  33,C  32)                  1.4014         0.599120   
     39. B(C  34,C  33)                  1.4478         0.505304   
     40. B(C  35,C  34)                  1.3426         0.743537   
     41. B(C  36,C  35)                  1.4480         0.504973   
     42. B(C  37,C  36)                  1.3995         0.603366   
     43. B(C  38,C  37)                  1.3778         0.653409   
     44. B(C  39,C  38)                  1.3928         0.618374   
     45. B(N  40,C  39)                  1.3997         0.540037   
     46. B(C  41,N  40)                  1.3811         0.578207   
     47. B(C  42,C  41)                  1.3876         0.630277   
     48. B(C  43,C  42)                  1.3817         0.644197   
     49. B(C  44,C  43)                  1.3931         0.617609   
     50. B(C  45,C  44)                  1.3804         0.647133   
     51. B(C  46,C  45)                  1.3886         0.628040   
     52. B(C  46,C  41)                  1.4139         0.572308   
     53. B(C  47,C  46)                  1.4360         0.527575   
     54. B(C  48,C  47)                  1.3886         0.628045   
     55. B(C  49,C  48)                  1.3804         0.647144   
     56. B(C  50,C  49)                  1.3931         0.617619   
     57. B(C  51,C  50)                  1.3817         0.644178   
     58. B(C  52,C  51)                  1.3876         0.630322   
     59. B(C  52,C  47)                  1.4139         0.572289   
     60. B(C  52,N  40)                  1.3811         0.578133   
     61. B(C  53,C  39)                  1.3936         0.616686   
     62. B(C  54,C  53)                  1.3779         0.653277   
     63. B(C  54,C  36)                  1.3986         0.605376   
     64. B(C  55,C  33)                  1.4026         0.596613   
     65. B(C  56,C  55)                  1.3725         0.666384   
     66. B(C  56,C  30)                  1.4049         0.591432   
     67. B(C  56,C   1)                  1.5129         0.397858   
     68. B(H  57,C   0)                  1.0875         0.363425   
     69. B(H  58,C   0)                  1.0875         0.363425   
     70. B(H  59,C   0)                  1.0880         0.362738   
     71. B(H  60,C   2)                  1.0875         0.363422   
     72. B(H  61,C   2)                  1.0875         0.363423   
     73. B(H  62,C   2)                  1.0880         0.362735   
     74. B(H  63,C   4)                  1.0791         0.374865   
     75. B(H  64,C   6)                  1.0821         0.370670   
     76. B(H  65,C   7)                  1.0820         0.370846   
     77. B(H  66,C   9)                  1.0788         0.375231   
     78. B(H  67,C  10)                  1.0800         0.373574   
     79. B(H  68,C  14)                  1.0796         0.374097   
     80. B(H  69,C  15)                  1.0802         0.373363   
     81. B(H  70,C  16)                  1.0799         0.373710   
     82. B(H  71,C  17)                  1.0796         0.374091   
     83. B(H  72,C  20)                  1.0796         0.374086   
     84. B(H  73,C  21)                  1.0799         0.373713   
     85. B(H  74,C  22)                  1.0801         0.373378   
     86. B(H  75,C  23)                  1.0796         0.374109   
     87. B(H  76,C  25)                  1.0799         0.373706   
     88. B(H  77,C  26)                  1.0810         0.372240   
     89. B(H  78,C  27)                  1.0812         0.371884   
     90. B(H  79,C  28)                  1.0800         0.373558   
     91. B(H  80,C  31)                  1.0800         0.373559   
     92. B(H  81,C  32)                  1.0812         0.371886   
     93. B(H  82,C  34)                  1.0821         0.370664   
     94. B(H  83,C  35)                  1.0820         0.370845   
     95. B(H  84,C  37)                  1.0810         0.372245   
     96. B(H  85,C  38)                  1.0799         0.373710   
     97. B(H  86,C  42)                  1.0796         0.374097   
     98. B(H  87,C  43)                  1.0802         0.373363   
     99. B(H  88,C  44)                  1.0799         0.373710   
    100. B(H  89,C  45)                  1.0796         0.374090   
    101. B(H  90,C  48)                  1.0796         0.374088   
    102. B(H  91,C  49)                  1.0799         0.373713   
    103. B(H  92,C  50)                  1.0801         0.373378   
    104. B(H  93,C  51)                  1.0796         0.374114   
    105. B(H  94,C  53)                  1.0800         0.373574   
    106. B(H  95,C  54)                  1.0788         0.375221   
    107. B(H  96,C  55)                  1.0791         0.374854   
    108. A(C   1,C   0,H  59)          110.1971         0.324380   
    109. A(C   1,C   0,H  57)          110.3622         0.324481   
    110. A(H  57,C   0,H  59)          108.6077         0.291594   
    111. A(H  58,C   0,H  59)          108.6069         0.291594   
    112. A(H  57,C   0,H  58)          108.6516         0.291681   
    113. A(C   1,C   0,H  58)          110.3633         0.324481   
    114. A(C   2,C   1,C  56)          111.1078         0.366884   
    115. A(C   2,C   1,C   3)          111.1052         0.366884   
    116. A(C   3,C   1,C  56)          101.5286         0.371285   
    117. A(C   0,C   1,C   3)          111.1404         0.366903   
    118. A(C   0,C   1,C   2)          110.5344         0.362570   
    119. A(C   0,C   1,C  56)          111.1392         0.366903   
    120. A(C   1,C   2,H  60)          110.3629         0.324464   
    121. A(H  60,C   2,H  61)          108.6601         0.291680   
    122. A(C   1,C   2,H  61)          110.3644         0.324464   
    123. A(H  60,C   2,H  62)          108.6044         0.291593   
    124. A(H  61,C   2,H  62)          108.6045         0.291594   
    125. A(C   1,C   2,H  62)          110.1925         0.324364   
    126. A(C   1,C   3,C  29)          110.6505         0.397788   
    127. A(C   4,C   3,C  29)          120.9022         0.436027   
    128. A(C   1,C   3,C   4)          128.4473         0.406243   
    129. A(C   3,C   4,H  63)          120.0688         0.359708   
    130. A(C   3,C   4,C   5)          119.7290         0.436708   
    131. A(C   5,C   4,H  63)          120.2020         0.353010   
    132. A(C   4,C   5,C   6)          123.0213         0.415597   
    133. A(C   6,C   5,C  27)          118.3931         0.415908   
    134. A(C   4,C   5,C  27)          118.5855         0.428427   
    135. A(C   7,C   6,H  64)          119.2205         0.365792   
    136. A(C   5,C   6,C   7)          126.5452         0.432283   
    137. A(C   5,C   6,H  64)          114.2341         0.342625   
    138. A(C   6,C   7,H  65)          119.3598         0.365822   
    139. A(C   6,C   7,C   8)          126.6089         0.432240   
    140. A(C   8,C   7,H  65)          114.0311         0.342620   
    141. A(C   7,C   8,C   9)          123.6803         0.416637   
    142. A(C   9,C   8,C  26)          117.6149         0.430093   
    143. A(C   7,C   8,C  26)          118.7045         0.416386   
    144. A(C   8,C   9,H  66)          120.0162         0.353943   
    145. A(C   8,C   9,C  10)          121.1825         0.436286   
    146. A(C  10,C   9,H  66)          118.7970         0.358546   
    147. A(C   9,C  10,H  67)          120.2042         0.358277   
    148. A(C  11,C  10,H  67)          119.3412         0.354793   
    149. A(C   9,C  10,C  11)          120.4456         0.437750   
    150. A(C  10,C  11,N  12)          120.4598         0.420297   
    151. A(N  12,C  11,C  25)          120.4135         0.420496   
    152. A(C  10,C  11,C  25)          119.1266         0.433446   
    153. A(C  13,N  12,C  24)          108.3505         0.417851   
    154. A(C  11,N  12,C  24)          125.8641         0.412811   
    155. A(C  11,N  12,C  13)          125.7849         0.412803   
    156. A(N  12,C  13,C  14)          129.5845         0.427113   
    157. A(C  14,C  13,C  18)          121.0377         0.429139   
    158. A(N  12,C  13,C  18)          109.3179         0.419813   
    159. A(C  13,C  14,C  15)          117.8381         0.438369   
    160. A(C  13,C  14,H  68)          121.2564         0.356189   
    161. A(C  15,C  14,H  68)          120.9010         0.357515   
    162. A(C  14,C  15,H  69)          119.2333         0.357395   
    163. A(C  16,C  15,H  69)          119.2659         0.354846   
    164. A(C  14,C  15,C  16)          121.5004         0.436767   
    165. A(C  15,C  16,H  70)          119.2444         0.354902   
    166. A(C  15,C  16,C  17)          120.9272         0.437123   
    167. A(C  17,C  16,H  70)          119.8255         0.357727   
    168. A(C  16,C  17,C  18)          118.6358         0.438443   
    169. A(C  18,C  17,H  71)          120.3978         0.355971   
    170. A(C  16,C  17,H  71)          120.9658         0.357789   
    171. A(C  17,C  18,C  19)          133.4567         0.422655   
    172. A(C  13,C  18,C  17)          120.0343         0.428863   
    173. A(C  13,C  18,C  19)          106.5056         0.415717   
    174. A(C  20,C  19,C  24)          120.0362         0.428856   
    175. A(C  18,C  19,C  24)          106.5131         0.415706   
    176. A(C  18,C  19,C  20)          133.4472         0.422659   
    177. A(C  19,C  20,C  21)          118.6335         0.438449   
    178. A(C  21,C  20,H  72)          120.9700         0.357789   
    179. A(C  19,C  20,H  72)          120.3958         0.355974   
    180. A(C  22,C  21,H  73)          119.2464         0.354902   
    181. A(C  20,C  21,C  22)          120.9276         0.437124   
    182. A(C  20,C  21,H  73)          119.8232         0.357728   
    183. A(C  21,C  22,C  23)          121.5044         0.436762   
    184. A(C  23,C  22,H  74)          119.2308         0.357394   
    185. A(C  21,C  22,H  74)          119.2643         0.354848   
    186. A(C  24,C  23,H  75)          121.2599         0.356195   
    187. A(C  22,C  23,H  75)          120.9023         0.357513   
    188. A(C  22,C  23,C  24)          117.8334         0.438369   
    189. A(C  19,C  24,C  23)          121.0397         0.429133   
    190. A(N  12,C  24,C  23)          129.5902         0.427126   
    191. A(N  12,C  24,C  19)          109.3119         0.419810   
    192. A(C  11,C  25,H  76)          119.5292         0.354974   
    193. A(C  11,C  25,C  26)          120.0622         0.437987   
    194. A(C  26,C  25,H  76)          120.4013         0.358319   
    195. A(C   8,C  26,C  25)          121.5662         0.436047   
    196. A(C  25,C  26,H  77)          119.2338         0.358080   
    197. A(C   8,C  26,H  77)          119.1971         0.353261   
    198. A(C   5,C  27,C  28)          121.9984         0.434757   
    199. A(C  28,C  27,H  78)          119.2856         0.357447   
    200. A(C   5,C  27,H  78)          118.7160         0.352784   
    201. A(C  27,C  28,C  29)          118.7211         0.438979   
    202. A(C  29,C  28,H  79)          120.7610         0.356277   
    203. A(C  27,C  28,H  79)          120.5179         0.357720   
    204. A(C  28,C  29,C  30)          131.3511         0.419838   
    205. A(C   3,C  29,C  30)          108.5851         0.414897   
    206. A(C   3,C  29,C  28)          120.0638         0.431900   
    207. A(C  29,C  30,C  31)          131.3484         0.419838   
    208. A(C  31,C  30,C  56)          120.0655         0.431899   
    209. A(C  29,C  30,C  56)          108.5861         0.414895   
    210. A(C  30,C  31,C  32)          118.7204         0.438981   
    211. A(C  32,C  31,H  80)          120.5185         0.357721   
    212. A(C  30,C  31,H  80)          120.7611         0.356277   
    213. A(C  31,C  32,C  33)          121.9966         0.434761   
    214. A(C  33,C  32,H  81)          118.7159         0.352786   
    215. A(C  31,C  32,H  81)          119.2874         0.357448   
    216. A(C  32,C  33,C  34)          118.3925         0.415909   
    217. A(C  34,C  33,C  55)          123.0180         0.415599   
    218. A(C  32,C  33,C  55)          118.5895         0.428434   
    219. A(C  33,C  34,C  35)          126.5480         0.432285   
    220. A(C  33,C  34,H  82)          114.2365         0.342623   
    221. A(C  35,C  34,H  82)          119.2142         0.365794   
    222. A(C  34,C  35,C  36)          126.5808         0.432234   
    223. A(C  36,C  35,H  83)          114.0487         0.342614   
    224. A(C  34,C  35,H  83)          119.3687         0.365825   
    225. A(C  35,C  36,C  37)          118.7202         0.416384   
    226. A(C  35,C  36,C  54)          123.6621         0.416630   
    227. A(C  37,C  36,C  54)          117.6176         0.430101   
    228. A(C  36,C  37,C  38)          121.5647         0.436047   
    229. A(C  38,C  37,H  84)          119.2345         0.358075   
    230. A(C  36,C  37,H  84)          119.1970         0.353266   
    231. A(C  37,C  38,C  39)          120.0617         0.437982   
    232. A(C  39,C  38,H  85)          119.5314         0.354976   
    233. A(C  37,C  38,H  85)          120.3993         0.358315   
    234. A(C  38,C  39,N  40)          120.4287         0.420499   
    235. A(N  40,C  39,C  53)          120.4451         0.420294   
    236. A(C  38,C  39,C  53)          119.1262         0.433443   
    237. A(C  39,N  40,C  41)          125.8264         0.412812   
    238. A(C  41,N  40,C  52)          108.3500         0.417846   
    239. A(C  39,N  40,C  52)          125.8224         0.412802   
    240. A(N  40,C  41,C  42)          129.5870         0.427119   
    241. A(C  42,C  41,C  46)          121.0359         0.429134   
    242. A(N  40,C  41,C  46)          109.3174         0.419816   
    243. A(C  41,C  42,C  43)          117.8382         0.438367   
    244. A(C  43,C  42,H  86)          120.9012         0.357513   
    245. A(C  41,C  42,H  86)          121.2561         0.356189   
    246. A(C  44,C  43,H  87)          119.2645         0.354846   
    247. A(C  42,C  43,H  87)          119.2339         0.357394   
    248. A(C  42,C  43,C  44)          121.5012         0.436765   
    249. A(C  45,C  44,H  88)          119.8251         0.357727   
    250. A(C  43,C  44,H  88)          119.2452         0.354902   
    251. A(C  43,C  44,C  45)          120.9268         0.437123   
    252. A(C  46,C  45,H  89)          120.3973         0.355973   
    253. A(C  44,C  45,H  89)          120.9667         0.357789   
    254. A(C  44,C  45,C  46)          118.6354         0.438445   
    255. A(C  45,C  46,C  47)          133.4538         0.422657   
    256. A(C  41,C  46,C  47)          106.5069         0.415713   
    257. A(C  41,C  46,C  45)          120.0360         0.428861   
    258. A(C  48,C  47,C  52)          120.0361         0.428859   
    259. A(C  46,C  47,C  52)          106.5121         0.415711   
    260. A(C  46,C  47,C  48)          133.4481         0.422658   
    261. A(C  49,C  48,H  90)          120.9693         0.357789   
    262. A(C  47,C  48,H  90)          120.3961         0.355973   
    263. A(C  47,C  48,C  49)          118.6340         0.438447   
    264. A(C  50,C  49,H  91)          119.2460         0.354903   
    265. A(C  48,C  49,H  91)          119.8240         0.357728   
    266. A(C  48,C  49,C  50)          120.9271         0.437126   
    267. A(C  51,C  50,H  92)          119.2301         0.357395   
    268. A(C  49,C  50,H  92)          119.2655         0.354849   
    269. A(C  49,C  50,C  51)          121.5039         0.436764   
    270. A(C  52,C  51,H  93)          121.2609         0.356196   
    271. A(C  50,C  51,H  93)          120.9003         0.357514   
    272. A(C  50,C  51,C  52)          117.8343         0.438370   
    273. A(C  47,C  52,C  51)          121.0392         0.429137   
    274. A(N  40,C  52,C  51)          129.5897         0.427115   
    275. A(N  40,C  52,C  47)          109.3127         0.419804   
    276. A(C  39,C  53,C  54)          120.4467         0.437750   
    277. A(C  54,C  53,H  94)          120.2054         0.358280   
    278. A(C  39,C  53,H  94)          119.3393         0.354790   
    279. A(C  36,C  54,C  53)          121.1804         0.436292   
    280. A(C  53,C  54,H  95)          118.8019         0.358548   
    281. A(C  36,C  54,H  95)          120.0129         0.353942   
    282. A(C  33,C  55,C  56)          119.7264         0.436708   
    283. A(C  56,C  55,H  96)          120.0758         0.359703   
    284. A(C  33,C  55,H  96)          120.1976         0.353011   
    285. A(C  30,C  56,C  55)          120.9015         0.436022   
    286. A(C   1,C  56,C  55)          128.4489         0.406239   
    287. A(C   1,C  56,C  30)          110.6496         0.397787   
    288. D(C  56,C   1,C   0,H  58)    176.0747         0.011015   
    289. D(C   2,C   1,C   0,H  59)    179.9864         0.011015   
    290. D(C   3,C   1,C   0,H  57)   -176.1047         0.011015   
    291. D(C  56,C   1,C   0,H  59)     56.1287         0.011015   
    292. D(C   3,C   1,C   0,H  59)    -56.1585         0.011015   
    293. D(C   2,C   1,C   0,H  57)     60.0401         0.011015   
    294. D(C   3,C   1,C   0,H  58)     63.7876         0.011015   
    295. D(C  56,C   1,C   0,H  57)    -63.8176         0.011015   
    296. D(C   2,C   1,C   0,H  58)    -60.0676         0.011015   
    297. D(H  62,C   2,C   1,C  56)    -56.1337         0.011009   
    298. D(H  62,C   2,C   1,C   3)     56.1152         0.011009   
    299. D(H  61,C   2,C   1,C   0)    -60.0686         0.011009   
    300. D(H  60,C   2,C   1,C   3)    -63.8245         0.011009   
    301. D(H  61,C   2,C   1,C   3)    176.0560         0.011009   
    302. D(H  61,C   2,C   1,C  56)     63.8071         0.011009   
    303. D(H  62,C   2,C   1,C   0)    179.9906         0.011009   
    304. D(H  60,C   2,C   1,C  56)   -176.0734         0.011009   
    305. D(H  60,C   2,C   1,C   0)     60.0509         0.011009   
    306. D(C   4,C   3,C   1,C   0)    -61.7263         0.011753   
    307. D(C  29,C   3,C   1,C  56)      0.0744         0.011753   
    308. D(C  29,C   3,C   1,C   2)   -118.1349         0.011753   
    309. D(C   4,C   3,C   1,C  56)   -179.9873         0.011753   
    310. D(C  29,C   3,C   1,C   0)    118.3355         0.011753   
    311. D(C   4,C   3,C   1,C   2)     61.8033         0.011753   
    312. D(H  63,C   4,C   3,C  29)    179.8773         0.031034   
    313. D(H  63,C   4,C   3,C   1)     -0.0554         0.031034   
    314. D(C   5,C   4,C   3,C  29)      0.0075         0.031034   
    315. D(C   5,C   4,C   3,C   1)   -179.9252         0.031034   
    316. D(C  27,C   5,C   4,C   3)      0.0408         0.024521   
    317. D(C   6,C   5,C   4,C   3)    179.9128         0.024521   
    318. D(C   6,C   5,C   4,H  63)      0.0432         0.024521   
    319. D(C  27,C   5,C   4,H  63)   -179.8288         0.024521   
    320. D(C   7,C   6,C   5,C   4)      1.4575         0.017397   
    321. D(H  64,C   6,C   5,C  27)      1.1806         0.017397   
    322. D(H  64,C   6,C   5,C   4)   -178.6917         0.017397   
    323. D(C   7,C   6,C   5,C  27)   -178.6702         0.017397   
    324. D(H  65,C   7,C   6,H  64)   -179.4859         0.039357   
    325. D(H  65,C   7,C   6,C   5)      0.3582         0.039357   
    326. D(C   8,C   7,C   6,H  64)      0.3144         0.039357   
    327. D(C   8,C   7,C   6,C   5)   -179.8415         0.039357   
    328. D(C  26,C   8,C   7,H  65)      1.5874         0.017377   
    329. D(C  26,C   8,C   7,C   6)   -178.2221         0.017377   
    330. D(C   9,C   8,C   7,H  65)   -178.2277         0.017377   
    331. D(C   9,C   8,C   7,C   6)      1.9629         0.017377   
    332. D(H  66,C   9,C   8,C  26)   -179.3834         0.025288   
    333. D(H  66,C   9,C   8,C   7)      0.4335         0.025288   
    334. D(C  10,C   9,C   8,C  26)     -0.1412         0.025288   
    335. D(C  10,C   9,C   8,C   7)    179.6757         0.025288   
    336. D(H  67,C  10,C   9,H  66)      0.7211         0.029732   
    337. D(H  67,C  10,C   9,C   8)   -178.5301         0.029732   
    338. D(C  11,C  10,C   9,H  66)    179.6251         0.029732   
    339. D(C  11,C  10,C   9,C   8)      0.3738         0.029732   
    340. D(C  25,C  11,C  10,H  67)    178.7187         0.026302   
    341. D(N  12,C  11,C  10,H  67)     -1.1946         0.026302   
    342. D(C  25,C  11,C  10,C   9)     -0.1946         0.026302   
    343. D(N  12,C  11,C  10,C   9)    179.8920         0.026302   
    344. D(C  24,N  12,C  11,C  25)    129.9291         0.023200   
    345. D(C  13,N  12,C  11,C  25)    -49.7758         0.023200   
    346. D(C  13,N  12,C  11,C  10)    130.1364         0.023200   
    347. D(C  24,N  12,C  11,C  10)    -50.1587         0.023200   
    348. D(C  18,C  13,N  12,C  11)    179.8383         0.026799   
    349. D(C  14,C  13,N  12,C  11)     -3.0036         0.026799   
    350. D(C  14,C  13,N  12,C  24)    177.2483         0.026799   
    351. D(C  18,C  13,N  12,C  24)      0.0903         0.026799   
    352. D(H  68,C  14,C  13,C  18)    177.5503         0.027545   
    353. D(H  68,C  14,C  13,N  12)      0.6807         0.027545   
    354. D(C  15,C  14,C  13,C  18)     -1.6807         0.027545   
    355. D(C  15,C  14,C  13,N  12)   -178.5504         0.027545   
    356. D(H  69,C  15,C  14,H  68)      0.9524         0.028860   
    357. D(H  69,C  15,C  14,C  13)   -179.8136         0.028860   
    358. D(C  16,C  15,C  14,H  68)   -178.7979         0.028860   
    359. D(C  16,C  15,C  14,C  13)      0.4360         0.028860   
    360. D(H  70,C  16,C  15,H  69)      0.4390         0.026382   
    361. D(H  70,C  16,C  15,C  14)   -179.8107         0.026382   
    362. D(C  17,C  16,C  15,H  69)   -178.9417         0.026382   
    363. D(C  17,C  16,C  15,C  14)      0.8086         0.026382   
    364. D(H  71,C  17,C  16,H  70)     -0.4489         0.029140   
    365. D(H  71,C  17,C  16,C  15)    178.9282         0.029140   
    366. D(C  18,C  17,C  16,H  70)    179.8413         0.029140   
    367. D(C  18,C  17,C  16,C  15)     -0.7815         0.029140   
    368. D(C  19,C  18,C  17,H  71)     -0.9439         0.027336   
    369. D(C  19,C  18,C  17,C  16)    178.7676         0.027336   
    370. D(C  13,C  18,C  17,H  71)    179.8339         0.027336   
    371. D(C  13,C  18,C  17,C  16)     -0.4546         0.027336   
    372. D(C  19,C  18,C  13,C  14)   -177.6892         0.022479   
    373. D(C  19,C  18,C  13,N  12)     -0.2452         0.022479   
    374. D(C  17,C  18,C  13,C  14)      1.7220         0.022479   
    375. D(C  17,C  18,C  13,N  12)    179.1659         0.022479   
    376. D(C  24,C  19,C  18,C  17)   -178.9966         0.018994   
    377. D(C  24,C  19,C  18,C  13)      0.3011         0.018994   
    378. D(C  20,C  19,C  18,C  17)      1.7092         0.018994   
    379. D(C  20,C  19,C  18,C  13)   -178.9931         0.018994   
    380. D(H  72,C  20,C  19,C  24)    179.8628         0.027339   
    381. D(H  72,C  20,C  19,C  18)     -0.9188         0.027339   
    382. D(C  21,C  20,C  19,C  24)     -0.4257         0.027339   
    383. D(C  21,C  20,C  19,C  18)    178.7927         0.027339   
    384. D(H  73,C  21,C  20,H  72)     -0.4490         0.029141   
    385. D(H  73,C  21,C  20,C  19)    179.8412         0.029141   
    386. D(C  22,C  21,C  20,H  72)    178.9371         0.029141   
    387. D(C  22,C  21,C  20,C  19)     -0.7727         0.029141   
    388. D(H  74,C  22,C  21,H  73)      0.4183         0.026383   
    389. D(H  74,C  22,C  21,C  20)   -178.9713         0.026383   
    390. D(C  23,C  22,C  21,H  73)   -179.8305         0.026383   
    391. D(C  23,C  22,C  21,C  20)      0.7799         0.026383   
    392. D(H  75,C  23,C  22,H  74)      0.9546         0.028856   
    393. D(H  75,C  23,C  22,C  21)   -178.7967         0.028856   
    394. D(C  24,C  23,C  22,H  74)   -179.8034         0.028856   
    395. D(C  24,C  23,C  22,C  21)      0.4453         0.028856   
    396. D(C  19,C  24,C  23,H  75)    177.5874         0.027549   
    397. D(N  12,C  24,C  23,H  75)      0.6738         0.027549   
    398. D(N  12,C  24,C  23,C  22)   -178.5654         0.027549   
    399. D(C  23,C  24,C  19,C  20)      1.6733         0.022472   
    400. D(C  23,C  24,C  19,C  18)   -177.7349         0.022472   
    401. D(N  12,C  24,C  19,C  20)    179.1534         0.022472   
    402. D(N  12,C  24,C  19,C  18)     -0.2547         0.022472   
    403. D(C  23,C  24,N  12,C  13)    177.3039         0.026805   
    404. D(C  23,C  24,N  12,C  11)     -2.4438         0.026805   
    405. D(C  19,C  24,C  23,C  22)     -1.6518         0.027549   
    406. D(C  19,C  24,N  12,C  13)      0.1058         0.026805   
    407. D(C  19,C  24,N  12,C  11)   -179.6419         0.026805   
    408. D(H  76,C  25,C  11,N  12)     -1.2749         0.026451   
    409. D(H  76,C  25,C  11,C  10)    178.8118         0.026451   
    410. D(C  26,C  25,C  11,N  12)    179.7016         0.026451   
    411. D(C  26,C  25,C  11,C  10)     -0.2118         0.026451   
    412. D(H  77,C  26,C   8,C   7)      0.5264         0.025108   
    413. D(C  25,C  26,C   8,C   9)     -0.2718         0.025108   
    414. D(C  25,C  26,C   8,C   7)    179.9019         0.025108   
    415. D(H  77,C  26,C  25,H  76)      0.8104         0.029754   
    416. D(H  77,C  26,C  25,C  11)    179.8254         0.029754   
    417. D(C   8,C  26,C  25,H  76)   -178.5648         0.029754   
    418. D(C   8,C  26,C  25,C  11)      0.4501         0.029754   
    419. D(H  77,C  26,C   8,C   9)   -179.6472         0.025108   
    420. D(H  78,C  27,C   5,C   6)      0.0903         0.024739   
    421. D(H  78,C  27,C   5,C   4)    179.9683         0.024739   
    422. D(C  28,C  27,C   5,C   6)   -179.9506         0.024739   
    423. D(C  28,C  27,C   5,C   4)     -0.0725         0.024739   
    424. D(H  79,C  28,C  27,H  78)     -0.0204         0.029159   
    425. D(H  79,C  28,C  27,C   5)   -179.9794         0.029159   
    426. D(C  29,C  28,C  27,H  78)   -179.9876         0.029159   
    427. D(C  29,C  28,C  27,C   5)      0.0535         0.029159   
    428. D(C  30,C  29,C  28,H  79)     -0.0231         0.027715   
    429. D(C  30,C  29,C  28,C  27)    179.9439         0.027715   
    430. D(C   3,C  29,C  28,H  79)   -179.9703         0.027715   
    431. D(C   3,C  29,C  28,C  27)     -0.0032         0.027715   
    432. D(C  30,C  29,C   3,C   4)   -179.9852         0.024079   
    433. D(C  30,C  29,C   3,C   1)     -0.0415         0.024079   
    434. D(C  28,C  29,C   3,C   4)     -0.0270         0.024079   
    435. D(C  28,C  29,C   3,C   1)    179.9166         0.024079   
    436. D(C  56,C  30,C  29,C  28)   -179.9653         0.017367   
    437. D(C  56,C  30,C  29,C   3)     -0.0136         0.017367   
    438. D(C  31,C  30,C  29,C  28)     -0.0473         0.017367   
    439. D(C  31,C  30,C  29,C   3)    179.9044         0.017367   
    440. D(H  80,C  31,C  30,C  56)    179.9218         0.027715   
    441. D(H  80,C  31,C  30,C  29)      0.0115         0.027715   
    442. D(C  32,C  31,C  30,C  56)     -0.0460         0.027715   
    443. D(C  32,C  31,C  30,C  29)   -179.9562         0.027715   
    444. D(H  81,C  32,C  31,H  80)      0.0402         0.029160   
    445. D(H  81,C  32,C  31,C  30)   -179.9919         0.029160   
    446. D(C  33,C  32,C  31,H  80)    179.9425         0.029160   
    447. D(C  33,C  32,C  31,C  30)     -0.0897         0.029160   
    448. D(C  55,C  33,C  32,H  81)   -179.9202         0.024741   
    449. D(C  55,C  33,C  32,C  31)      0.1771         0.024741   
    450. D(C  34,C  33,C  32,H  81)      0.0080         0.024741   
    451. D(C  34,C  33,C  32,C  31)   -179.8948         0.024741   
    452. D(H  82,C  34,C  33,C  55)    177.9996         0.017396   
    453. D(H  82,C  34,C  33,C  32)     -1.9251         0.017396   
    454. D(C  35,C  34,C  33,C  55)     -2.4045         0.017396   
    455. D(C  35,C  34,C  33,C  32)    177.6708         0.017396   
    456. D(H  83,C  35,C  34,H  82)    179.1899         0.039361   
    457. D(H  83,C  35,C  34,C  33)     -0.3879         0.039361   
    458. D(C  36,C  35,C  34,H  82)     -0.3004         0.039361   
    459. D(C  36,C  35,C  34,C  33)   -179.8782         0.039361   
    460. D(C  54,C  36,C  35,H  83)    177.3154         0.017373   
    461. D(C  54,C  36,C  35,C  34)     -3.1710         0.017373   
    462. D(C  37,C  36,C  35,H  83)     -2.5623         0.017373   
    463. D(C  37,C  36,C  35,C  34)    176.9512         0.017373   
    464. D(H  84,C  37,C  36,C  54)    179.7334         0.025112   
    465. D(H  84,C  37,C  36,C  35)     -0.3814         0.025112   
    466. D(C  38,C  37,C  36,C  54)      0.4473         0.025112   
    467. D(C  38,C  37,C  36,C  35)   -179.6675         0.025112   
    468. D(H  85,C  38,C  37,H  84)     -0.7992         0.029749   
    469. D(H  85,C  38,C  37,C  36)    178.4867         0.029749   
    470. D(C  39,C  38,C  37,H  84)   -179.7868         0.029749   
    471. D(C  39,C  38,C  37,C  36)     -0.5010         0.029749   
    472. D(C  53,C  39,C  38,H  85)   -178.8896         0.026452   
    473. D(C  53,C  39,C  38,C  37)      0.1068         0.026452   
    474. D(N  40,C  39,C  38,H  85)      1.1513         0.026452   
    475. D(N  40,C  39,C  38,C  37)   -179.8522         0.026452   
    476. D(C  52,N  40,C  39,C  53)     50.1877         0.023201   
    477. D(C  52,N  40,C  39,C  38)   -129.8537         0.023201   
    478. D(C  41,N  40,C  39,C  53)   -130.2598         0.023201   
    479. D(C  41,N  40,C  39,C  38)     49.6988         0.023201   
    480. D(C  46,C  41,N  40,C  52)     -0.1043         0.026804   
    481. D(C  46,C  41,N  40,C  39)   -179.7221         0.026804   
    482. D(C  42,C  41,N  40,C  52)   -177.2674         0.026804   
    483. D(C  42,C  41,N  40,C  39)      3.1149         0.026804   
    484. D(H  86,C  42,C  41,C  46)   -177.5511         0.027545   
    485. D(H  86,C  42,C  41,N  40)     -0.6759         0.027545   
    486. D(C  43,C  42,C  41,C  46)      1.6839         0.027545   
    487. D(C  43,C  42,C  41,N  40)    178.5591         0.027545   
    488. D(H  87,C  43,C  42,H  86)     -0.9533         0.028859   
    489. D(H  87,C  43,C  42,C  41)    179.8088         0.028859   
    490. D(C  44,C  43,C  42,H  86)    178.7993         0.028859   
    491. D(C  44,C  43,C  42,C  41)     -0.4385         0.028859   
    492. D(H  88,C  44,C  43,H  87)     -0.4397         0.026382   
    493. D(H  88,C  44,C  43,C  42)    179.8077         0.026382   
    494. D(C  45,C  44,C  43,H  87)    178.9436         0.026382   
    495. D(C  45,C  44,C  43,C  42)     -0.8090         0.026382   
    496. D(H  89,C  45,C  44,H  88)      0.4491         0.029140   
    497. D(H  89,C  45,C  44,C  43)   -178.9307         0.029140   
    498. D(C  46,C  45,C  44,H  88)   -179.8362         0.029140   
    499. D(C  46,C  45,C  44,C  43)      0.7840         0.029140   
    500. D(C  47,C  46,C  45,H  89)      0.9292         0.027337   
    501. D(C  47,C  46,C  45,C  44)   -178.7872         0.027337   
    502. D(C  41,C  46,C  45,H  89)   -179.8308         0.027337   
    503. D(C  41,C  46,C  45,C  44)      0.4528         0.027337   
    504. D(C  47,C  46,C  41,C  42)    177.7015         0.022476   
    505. D(C  47,C  46,C  41,N  40)      0.2530         0.022476   
    506. D(C  45,C  46,C  41,C  42)     -1.7231         0.022476   
    507. D(C  45,C  46,C  41,N  40)   -179.1716         0.022476   
    508. D(C  52,C  47,C  46,C  45)    179.0140         0.018994   
    509. D(C  52,C  47,C  46,C  41)     -0.2998         0.018994   
    510. D(C  48,C  47,C  46,C  45)     -1.7071         0.018994   
    511. D(C  48,C  47,C  46,C  41)    178.9791         0.018994   
    512. D(H  90,C  48,C  47,C  52)   -179.8655         0.027338   
    513. D(H  90,C  48,C  47,C  46)      0.9331         0.027338   
    514. D(C  49,C  48,C  47,C  52)      0.4269         0.027338   
    515. D(C  49,C  48,C  47,C  46)   -178.7745         0.027338   
    516. D(H  91,C  49,C  48,H  90)      0.4498         0.029142   
    517. D(H  91,C  49,C  48,C  47)   -179.8444         0.029142   
    518. D(C  50,C  49,C  48,H  90)   -178.9330         0.029142   
    519. D(C  50,C  49,C  48,C  47)      0.7728         0.029142   
    520. D(H  92,C  50,C  49,H  91)     -0.4182         0.026383   
    521. D(H  92,C  50,C  49,C  48)    178.9681         0.026383   
    522. D(C  51,C  50,C  49,H  91)    179.8329         0.026383   
    523. D(C  51,C  50,C  49,C  48)     -0.7808         0.026383   
    524. D(H  93,C  51,C  50,H  92)     -0.9569         0.028857   
    525. D(H  93,C  51,C  50,C  49)    178.7921         0.028857   
    526. D(C  52,C  51,C  50,H  92)    179.8061         0.028857   
    527. D(C  52,C  51,C  50,C  49)     -0.4449         0.028857   
    528. D(C  47,C  52,C  51,H  93)   -177.5813         0.027549   
    529. D(N  40,C  52,C  51,H  93)     -0.6736         0.027549   
    530. D(N  40,C  52,C  51,C  50)    178.5605         0.027549   
    531. D(C  51,C  52,C  47,C  48)     -1.6751         0.022474   
    532. D(C  51,C  52,C  47,C  46)    177.7202         0.022474   
    533. D(N  40,C  52,C  47,C  48)   -179.1504         0.022474   
    534. D(N  40,C  52,C  47,C  46)      0.2448         0.022474   
    535. D(C  51,C  52,N  40,C  41)   -177.2838         0.026797   
    536. D(C  51,C  52,N  40,C  39)      2.3340         0.026797   
    537. D(C  47,C  52,C  51,C  50)      1.6528         0.027549   
    538. D(C  47,C  52,N  40,C  41)     -0.0910         0.026797   
    539. D(C  47,C  52,N  40,C  39)    179.5268         0.026797   
    540. D(H  94,C  53,C  39,C  38)   -178.6088         0.026299   
    541. D(C  54,C  53,C  39,N  40)   -179.7145         0.026299   
    542. D(C  54,C  53,C  39,C  38)      0.3265         0.026299   
    543. D(H  94,C  53,C  39,N  40)      1.3502         0.026299   
    544. D(H  95,C  54,C  53,H  94)     -0.6547         0.029736   
    545. D(H  95,C  54,C  53,C  39)   -179.5807         0.029736   
    546. D(C  36,C  54,C  53,H  94)    178.5490         0.029736   
    547. D(C  36,C  54,C  53,C  39)     -0.3770         0.029736   
    548. D(H  95,C  54,C  36,C  37)    179.1873         0.025289   
    549. D(H  95,C  54,C  36,C  35)     -0.6917         0.025289   
    550. D(C  53,C  54,C  36,C  37)     -0.0069         0.025289   
    551. D(C  53,C  54,C  36,C  35)   -179.8859         0.025289   
    552. D(H  96,C  55,C  33,C  34)     -0.2334         0.024523   
    553. D(H  96,C  55,C  33,C  32)    179.6911         0.024523   
    554. D(C  56,C  55,C  33,C  34)    179.9478         0.024523   
    555. D(C  56,C  55,C  33,C  32)     -0.1276         0.024523   
    556. D(C  30,C  56,C  55,H  96)   -179.8224         0.031031   
    557. D(C  30,C  56,C  55,C  33)     -0.0034         0.031031   
    558. D(C   1,C  56,C  55,H  96)      0.1277         0.031031   
    559. D(C   1,C  56,C  55,C  33)    179.9466         0.031031   
    560. D(C  55,C  56,C  30,C  31)      0.0928         0.024078   
    561. D(C  55,C  56,C  30,C  29)   -179.9783         0.024078   
    562. D(C   1,C  56,C  30,C  31)   -179.8654         0.024078   
    563. D(C   1,C  56,C  30,C  29)      0.0635         0.024078   
    564. D(C  55,C  56,C   1,C   3)    179.9629         0.011753   
    565. D(C  55,C  56,C   1,C   2)    -61.8296         0.011753   
    566. D(C  55,C  56,C   1,C   0)     61.7009         0.011753   
    567. D(C  30,C  56,C   1,C   3)     -0.0829         0.011753   
    568. D(C  30,C  56,C   1,C   2)    118.1245         0.011753   
    569. D(C  30,C  56,C   1,C   0)   -118.3449         0.011753   
    -----------------------------------------------------------------

Number of atoms                         .... 97
Number of degrees of freedom            .... 569

         *************************************************************
         *                GEOMETRY OPTIMIZATION CYCLE   1            *
         *************************************************************
---------------------------------
CARTESIAN COORDINATES (ANGSTROEM)
---------------------------------
  C      0.004082    0.174987   -1.424602
  C     -0.000569   -0.094532    0.083168
  C     -0.005788    1.222971    0.864471
  C     -1.172047   -0.966617    0.477935
  C     -2.512981   -0.703132    0.351137
  C     -3.452002   -1.651053    0.783468
  C     -4.881920   -1.446621    0.685511
  C     -5.502659   -0.377039    0.162646
  C     -6.932466   -0.169743    0.066865
  C     -7.881603   -1.071718    0.558458
  C     -9.231418   -0.819237    0.445276
  C     -9.682568    0.345330   -0.172955
  N    -11.053710    0.601030   -0.290093
  C    -11.688977    1.776081    0.060875
  C    -11.168268    2.922960    0.643133
  C    -12.039951    3.958347    0.920899
  C    -13.400519    3.860197    0.637899
  C    -13.928621    2.712084    0.082421
  C    -13.072404    1.657556   -0.205796
  C    -13.271911    0.343677   -0.749978
  C    -14.389129   -0.338490   -1.213263
  C    -14.225808   -1.617256   -1.706906
  C    -12.966060   -2.210055   -1.756774
  C    -11.839699   -1.551521   -1.302125
  C    -12.001202   -0.275569   -0.781257
  C     -8.750965    1.252854   -0.671409
  C     -7.402933    0.996809   -0.546714
  C     -2.986832   -2.850878    1.338493
  C     -1.639791   -3.122832    1.468524
  C     -0.723872   -2.175579    1.035956
  C      0.724119   -2.172736    1.041074
  C      1.640616   -3.116071    1.480916
  C      2.987473   -2.839085    1.359963
  C      3.451851   -1.638329    0.806318
  C      4.881638   -1.429906    0.714998
  C      5.502024   -0.367393    0.177539
  C      6.931878   -0.159342    0.083633
  C      7.403502    0.984703   -0.570075
  C      8.751776    1.237376   -0.699209
  C      9.682336    0.349907   -0.164059
  N     11.053789    0.600609   -0.288089
  C     11.689279    1.788326    0.016711
  C     11.168740    2.957403    0.553175
  C     12.040660    4.002668    0.790248
  C     13.401301    3.893042    0.511851
  C     13.929243    2.723770    0.002254
  C     13.072786    1.658989   -0.244543
  C     13.272085    0.324755   -0.736796
  C     14.389221   -0.375313   -1.172787
  C     14.225622   -1.672267   -1.616342
  C     12.965682   -2.266123   -1.643545
  C     11.839414   -1.590006   -1.215251
  C     12.001185   -0.294805   -0.744371
  C      9.229897   -0.790318    0.497142
  C      7.879930   -1.040143    0.614156
  C      2.512281   -0.693780    0.367884
  C      1.171504   -0.962151    0.485932
  H      0.887257    0.744481   -1.704477
  H     -0.879578    0.740658   -1.710631
  H      0.008020   -0.764091   -1.974047
  H     -0.889470    1.806372    0.616667
  H      0.877464    1.809660    0.622980
  H     -0.009243    1.025133    1.934343
  H     -2.842300    0.230721   -0.077630
  H     -5.475119   -2.260206    1.081978
  H     -4.911756    0.434014   -0.242003
  H     -7.561761   -1.978584    1.047431
  H     -9.950313   -1.515326    0.851541
  H    -10.118854    3.001925    0.884121
  H    -11.658206    4.862822    1.371373
  H    -14.048531    4.693033    0.867358
  H    -14.985585    2.628918   -0.121291
  H    -15.362515    0.127960   -1.190034
  H    -15.082000   -2.166280   -2.069798
  H    -12.866739   -3.205655   -2.163745
  H    -10.865389   -2.012565   -1.363093
  H     -9.093462    2.148099   -1.168829
  H     -6.691630    1.708954   -0.940927
  H     -3.708885   -3.582895    1.672946
  H     -1.307750   -4.055751    1.899612
  H      1.309149   -4.049844    1.910592
  H      3.710008   -3.568131    1.699816
  H      5.475199   -2.235824    1.126320
  H      4.911102    0.433777   -0.246316
  H      6.693019    1.680678   -0.993548
  H      9.095271    2.113720   -1.228566
  H     10.119261    3.046130    0.790450
  H     11.659047    4.924328    1.204551
  H     14.049491    4.734091    0.708508
  H     14.986247    2.632319   -0.197668
  H     15.362757    0.091370   -1.167450
  H     15.081729   -2.235281   -1.957339
  H     12.866113   -3.276755   -2.011538
  H     10.864965   -2.052734   -1.258653
  H      9.947892   -1.469166    0.933090
  H      7.558970   -1.927319    1.137337
  H      2.841112    0.241601   -0.057938

----------------------------
CARTESIAN COORDINATES (A.U.)
----------------------------
  NO LB      ZA    FRAG     MASS         X           Y           Z
   0 C     6.0000    0    12.011    0.007714    0.330677   -2.692107
   1 C     6.0000    0    12.011   -0.001075   -0.178640    0.157164
   2 C     6.0000    0    12.011   -0.010938    2.311080    1.633614
   3 C     6.0000    0    12.011   -2.214847   -1.826641    0.903166
   4 C     6.0000    0    12.011   -4.748846   -1.328728    0.663553
   5 C     6.0000    0    12.011   -6.523338   -3.120038    1.480540
   6 C     6.0000    0    12.011   -9.225492   -2.733717    1.295427
   7 C     6.0000    0    12.011  -10.398518   -0.712501    0.307357
   8 C     6.0000    0    12.011  -13.100462   -0.320767    0.126356
   9 C     6.0000    0    12.011  -14.894072   -2.025253    1.055332
  10 C     6.0000    0    12.011  -17.444852   -1.548134    0.841449
  11 C     6.0000    0    12.011  -18.297401    0.652578   -0.326838
  12 N     7.0000    0    14.007  -20.888484    1.135782   -0.548197
  13 C     6.0000    0    12.011  -22.088966    3.356308    0.115037
  14 C     6.0000    0    12.011  -21.104967    5.523595    1.215346
  15 C     6.0000    0    12.011  -22.752211    7.480191    1.740246
  16 C     6.0000    0    12.011  -25.323311    7.294715    1.205454
  17 C     6.0000    0    12.011  -26.321279    5.125095    0.155753
  18 C     6.0000    0    12.011  -24.703263    3.132328   -0.388898
  19 C     6.0000    0    12.011  -25.080276    0.649455   -1.417253
  20 C     6.0000    0    12.011  -27.191512   -0.639653   -2.292735
  21 C     6.0000    0    12.011  -26.882881   -3.056171   -3.225585
  22 C     6.0000    0    12.011  -24.502303   -4.176399   -3.319822
  23 C     6.0000    0    12.011  -22.373788   -2.931950   -2.460659
  24 C     6.0000    0    12.011  -22.678984   -0.520751   -1.476361
  25 C     6.0000    0    12.011  -16.536928    2.367552   -1.268779
  26 C     6.0000    0    12.011  -13.989516    1.883697   -1.033140
  27 C     6.0000    0    12.011   -5.644294   -5.387378    2.529386
  28 C     6.0000    0    12.011   -3.098756   -5.901297    2.775108
  29 C     6.0000    0    12.011   -1.367919   -4.111248    1.957674
  30 C     6.0000    0    12.011    1.368386   -4.105877    1.967345
  31 C     6.0000    0    12.011    3.100314   -5.888522    2.798526
  32 C     6.0000    0    12.011    5.645506   -5.365094    2.569958
  33 C     6.0000    0    12.011    6.523053   -3.095993    1.523720
  34 C     6.0000    0    12.011    9.224959   -2.702131    1.351151
  35 C     6.0000    0    12.011   10.397319   -0.694273    0.335500
  36 C     6.0000    0    12.011   13.099351   -0.301113    0.158043
  37 C     6.0000    0    12.011   13.990591    1.860819   -1.077286
  38 C     6.0000    0    12.011   16.538461    2.338301   -1.321314
  39 C     6.0000    0    12.011   18.296963    0.661229   -0.310026
  40 N     7.0000    0    14.007   20.888634    1.134986   -0.544409
  41 C     6.0000    0    12.011   22.089536    3.379446    0.031578
  42 C     6.0000    0    12.011   21.105860    5.588681    1.045350
  43 C     6.0000    0    12.011   22.753551    7.563946    1.493353
  44 C     6.0000    0    12.011   25.324788    7.356783    0.967258
  45 C     6.0000    0    12.011   26.322454    5.147179    0.004259
  46 C     6.0000    0    12.011   24.703986    3.135034   -0.462118
  47 C     6.0000    0    12.011   25.080606    0.613699   -1.392342
  48 C     6.0000    0    12.011   27.191687   -0.709239   -2.216246
  49 C     6.0000    0    12.011   26.882530   -3.160127   -3.054445
  50 C     6.0000    0    12.011   24.501588   -4.282352   -3.105850
  51 C     6.0000    0    12.011   22.373250   -3.004675   -2.296492
  52 C     6.0000    0    12.011   22.678954   -0.557101   -1.406657
  53 C     6.0000    0    12.011   17.441978   -1.493485    0.939462
  54 C     6.0000    0    12.011   14.890911   -1.965586    1.160586
  55 C     6.0000    0    12.011    4.747524   -1.311054    0.695200
  56 C     6.0000    0    12.011    2.213821   -1.818202    0.918278
  57 H     1.0000    0     1.008    1.676673    1.406866   -3.220994
  58 H     1.0000    0     1.008   -1.662161    1.399640   -3.232624
  59 H     1.0000    0     1.008    0.015155   -1.443923   -3.730408
  60 H     1.0000    0     1.008   -1.680854    3.413549    1.165332
  61 H     1.0000    0     1.008    1.658166    3.419761    1.177262
  62 H     1.0000    0     1.008   -0.017467    1.937220    3.655379
  63 H     1.0000    0     1.008   -5.371168    0.435999   -0.146699
  64 H     1.0000    0     1.008  -10.346476   -4.271171    2.044642
  65 H     1.0000    0     1.008   -9.281873    0.820168   -0.457320
  66 H     1.0000    0     1.008  -14.289658   -3.738982    1.979359
  67 H     1.0000    0     1.008  -18.803367   -2.863551    1.609180
  68 H     1.0000    0     1.008  -19.121864    5.672817    1.670746
  69 H     1.0000    0     1.008  -22.030816    9.189402    2.591519
  70 H     1.0000    0     1.008  -26.547876    8.868548    1.639069
  71 H     1.0000    0     1.008  -28.318652    4.967935   -0.229207
  72 H     1.0000    0     1.008  -29.030946    0.241809   -2.248839
  73 H     1.0000    0     1.008  -28.500850   -4.093676   -3.911351
  74 H     1.0000    0     1.008  -24.314613   -6.057811   -4.088886
  75 H     1.0000    0     1.008  -20.532609   -3.803197   -2.575872
  76 H     1.0000    0     1.008  -17.184152    4.059318   -2.208767
  77 H     1.0000    0     1.008  -12.645348    3.229454   -1.778094
  78 H     1.0000    0     1.008   -7.008777   -6.770690    3.161410
  79 H     1.0000    0     1.008   -2.471288   -7.664258    3.589746
  80 H     1.0000    0     1.008    2.473932   -7.653097    3.610497
  81 H     1.0000    0     1.008    7.010899   -6.742791    3.212187
  82 H     1.0000    0     1.008   10.346626   -4.225095    2.128436
  83 H     1.0000    0     1.008    9.280637    0.819719   -0.465469
  84 H     1.0000    0     1.008   12.647973    3.176022   -1.877534
  85 H     1.0000    0     1.008   17.187571    3.994353   -2.321653
  86 H     1.0000    0     1.008   19.122631    5.756351    1.493734
  87 H     1.0000    0     1.008   22.032407    9.305631    2.276272
  88 H     1.0000    0     1.008   26.549690    8.946135    1.338885
  89 H     1.0000    0     1.008   28.319903    4.974363   -0.373539
  90 H     1.0000    0     1.008   29.031404    0.172664   -2.206161
  91 H     1.0000    0     1.008   28.500337   -4.224069   -3.698834
  92 H     1.0000    0     1.008   24.313430   -6.192170   -3.801256
  93 H     1.0000    0     1.008   20.531808   -3.879105   -2.378510
  94 H     1.0000    0     1.008   18.798791   -2.776322    1.763284
  95 H     1.0000    0     1.008   14.284382   -3.642105    2.149256
  96 H     1.0000    0     1.008    5.368924    0.456560   -0.109487



           ************************************************************
           *        Program running with 40 parallel MPI-processes    *
           *              working on a common directory               *
           ************************************************************
------------------------------------------------------------------------------
                   ___                                                        
                  /   \      - P O W E R E D   B Y -                         
                 /     \                                                     
                 |  |  |   _    _      __       _____    __    __             
                 |  |  |  | |  | |    /  \     |  _  \  |  |  /  |          
                  \  \/   | |  | |   /    \    | | | |  |  | /  /          
                 / \  \   | |__| |  /  /\  \   | |_| |  |  |/  /          
                |  |  |   |  __  | /  /__\  \  |    /   |      \           
                |  |  |   | |  | | |   __   |  |    \   |  |\   \          
                \     /   | |  | | |  |  |  |  | |\  \  |  | \   \       
                 \___/    |_|  |_| |__|  |__|  |_| \__\ |__|  \__/        
                                                                              
                      - O R C A' S   B I G   F R I E N D -                    
                                      &                                       
                       - I N T E G R A L  F E E D E R -                       
                                                                              
 v1 FN, 2020, v2 2021                                                         
------------------------------------------------------------------------------


Reading SHARK input file /dev/shm/slurm.malcolms.9869179/9869179/S1/S1_OPT.SHARKINP.tmp ... ok
----------------------
SHARK INTEGRAL PACKAGE
----------------------

Number of atoms                             ...     97
Number of basis functions                   ...    998
Number of shells                            ...    462
Maximum angular momentum                    ...      2
Integral batch strategy                     ... SHARK/LIBINT Hybrid
RI-J (if used) integral strategy            ... SPLIT-RIJ (Revised 2003 algorithm where possible)
Printlevel                                  ...      1
Contraction scheme used                     ... SEGMENTED contraction
Coulomb Range Separation                    ... NOT USED
Exchange Range Separation                   ... NOT USED
Finite Nucleus Model                        ... NOT USED
Auxiliary Coulomb fitting basis             ... AVAILABLE
   # of basis functions in Aux-J            ...   3233
   # of shells in Aux-J                     ...   1055
   Maximum angular momentum in Aux-J        ...      4
Auxiliary J/K fitting basis                 ... NOT available
Auxiliary Correlation fitting basis         ... NOT available
Auxiliary 'external' fitting basis          ... NOT available
Integral threshold                          ...     2.500000e-11
Primitive cut-off                           ...     2.500000e-12
Primitive pair pre-selection threshold      ...     2.500000e-12

Calculating pre-screening integrals         ... done (  0.0 sec) Dimension = 462
Organizing shell pair data                  ... done (  0.2 sec)
Shell pair information
Total number of shell pairs                 ...    106953
Shell pairs after pre-screening             ...     35733
Total number of primitive shell pairs       ...    392031
Primitive shell pairs kept                  ...     81329
          la=0 lb=0:  10935 shell pairs
          la=1 lb=0:  13337 shell pairs
          la=1 lb=1:   4179 shell pairs
          la=2 lb=0:   4233 shell pairs
          la=2 lb=1:   2628 shell pairs
          la=2 lb=2:    421 shell pairs

Calculating one electron integrals          ... done (  0.1 sec)
Calculating RI/J V-Matrix + Cholesky decomp.... done (  0.5 sec)
Calculating Nuclear repulsion               ... done (  0.0 sec) ENN=   5940.440389097931 Eh

SHARK setup successfully completed in   1.2 seconds

Maximum memory used throughout the entire GTOINT-calculation: 64.1 MB


           ************************************************************
           *        Program running with 40 parallel MPI-processes    *
           *              working on a common directory               *
           ************************************************************

Diagonalization of the overlap matrix:
Smallest eigenvalue                        ... 2.094e-04
Time for diagonalization                   ...    0.254 sec
Threshold for overlap eigenvalues          ... 1.000e-08
Number of eigenvalues below threshold      ... 0
Time for construction of square roots      ...    0.164 sec
Total time needed                          ...    0.427 sec

Time for model grid setup =    0.625 sec

Loading Hartree-Fock densities                     ... done
Calculating cut-offs                               ... done
Initializing the effective Hamiltonian             ... done
Setting up the integral package (SHARK)            ... done
Starting the Coulomb interaction                   ... done (   0.4 sec)
Reading the grid                                   ... done
Mapping shells                                     ... done
Starting the XC term evaluation                    ... done (   0.1 sec)
  promolecular density results
     # of electrons  =    383.976447039
     EX              =   -306.620630814
     EC              =    -12.939006475
     EX+EC           =   -319.559637289
Transforming the Hamiltonian                       ... done (   0.1 sec)
Diagonalizing the Hamiltonian                      ... done (   0.2 sec)
Back transforming the eigenvectors                 ... done (   0.0 sec)
Now organizing SCF variables                       ... done
-------------------
DFT GRID GENERATION
-------------------

General Integration Accuracy     IntAcc      ... 4.959
Radial Grid Type                 RadialGrid  ... OptM3 with GC (2021)
Angular Grid (max. ang.)         AngularGrid ... 6 (Lebedev-590)
Angular grid pruning method      GridPruning ... 4 (adaptive)
Weight generation scheme         WeightScheme... Becke
Basis function cutoff            BFCut       ... 1.0000e-11
Integration weight cutoff        WCut        ... 1.0000e-14
Angular grids for H and He will be reduced by one unit
Partially contracted basis set               ... off
Rotationally invariant grid construction     ... off

Total number of grid points                  ...  1142354
Total number of batches                      ...    17890
Average number of points per batch           ...       63
Average number of grid points per atom       ...    11777
Time for grid setup =   12.091 sec

--------------------
COSX GRID GENERATION
--------------------

GRIDX 1
-------
General Integration Accuracy     IntAcc      ... 4.020
Radial Grid Type                 RadialGrid  ... OptM3 with GC (2021)
Angular Grid (max. ang.)         AngularGrid ... 2 (Lebedev-110)
Angular grid pruning method      GridPruning ... 4 (adaptive)
Weight generation scheme         WeightScheme... Becke
Basis function cutoff            BFCut       ... 1.0000e-11
Integration weight cutoff        WCut        ... 1.0000e-14
Angular grids for H and He will be reduced by one unit
Partially contracted basis set               ... on
Rotationally invariant grid construction     ... off

Total number of grid points                  ...   128133
Total number of batches                      ...     2050
Average number of points per batch           ...       62
Average number of grid points per atom       ...     1321
UseSFitting                                  ... on

GRIDX 2
-------
General Integration Accuracy     IntAcc      ... 4.338
Radial Grid Type                 RadialGrid  ... OptM3 with GC (2021)
Angular Grid (max. ang.)         AngularGrid ... 3 (Lebedev-194)
Angular grid pruning method      GridPruning ... 4 (adaptive)
Weight generation scheme         WeightScheme... Becke
Basis function cutoff            BFCut       ... 1.0000e-11
Integration weight cutoff        WCut        ... 1.0000e-14
Angular grids for H and He will be reduced by one unit
Partially contracted basis set               ... on
Rotationally invariant grid construction     ... off

Total number of grid points                  ...   279788
Total number of batches                      ...     4419
Average number of points per batch           ...       63
Average number of grid points per atom       ...     2884
UseSFitting                                  ... on

GRIDX 3
-------
General Integration Accuracy     IntAcc      ... 4.871
Radial Grid Type                 RadialGrid  ... OptM3 with GC (2021)
Angular Grid (max. ang.)         AngularGrid ... 4 (Lebedev-302)
Angular grid pruning method      GridPruning ... 4 (adaptive)
Weight generation scheme         WeightScheme... Becke
Basis function cutoff            BFCut       ... 1.0000e-11
Integration weight cutoff        WCut        ... 1.0000e-14
Angular grids for H and He will be reduced by one unit
Partially contracted basis set               ... on
Rotationally invariant grid construction     ... off

Total number of grid points                  ...   519442
Total number of batches                      ...     8164
Average number of points per batch           ...       63
Average number of grid points per atom       ...     5355
UseSFitting                                  ... on

Time for X-Grid setup             =    5.886 sec

--------------
SCF ITERATIONS
--------------
ITER       Energy         Delta-E        Max-DP      RMS-DP      [F,P]     Damp
               ***  Starting incremental Fock matrix formation  ***
  0  -2224.4036883269   0.000000000000 0.08246578  0.00109756  0.1560464 0.7000
  1  -2224.8039317960  -0.400243469055 0.04986554  0.00078122  0.0855748 0.7000
                               ***Turning on DIIS***
  2  -2224.9956387283  -0.191706932341 0.08681082  0.00150413  0.0361550 0.0000
  3  -2225.2794473774  -0.283808649138 0.03455638  0.00042754  0.0429835 0.0000
  4  -2225.3390235044  -0.059576126978 0.01071582  0.00012246  0.0111633 0.0000
                      *** Initiating the SOSCF procedure ***
                           *** Shutting down DIIS ***
                      *** Re-Reading the Fockian *** 
                      *** Removing any level shift *** 
ITER      Energy       Delta-E        Grad      Rot      Max-DP    RMS-DP
  5  -2225.34187229  -0.0028487821  0.000766  0.000766  0.003383  0.000042
               *** Restarting incremental Fock matrix formation ***
  6  -2225.34217739  -0.0003051065  0.000499  0.002953  0.001522  0.000023
  7  -2225.34219224  -0.0000148509  0.000238  0.000912  0.001117  0.000009
  8  -2225.34220080  -0.0000085539  0.000099  0.000354  0.000387  0.000005
  9  -2225.34220114  -0.0000003450  0.000083  0.000154  0.000214  0.000002
 10  -2225.34220216  -0.0000010204  0.000027  0.000099  0.000092  0.000001
 11  -2225.34220216   0.0000000032  0.000032  0.000053  0.000055  0.000001
 12  -2225.34220221  -0.0000000507  0.000010  0.000029  0.000042  0.000000
 13  -2225.34220220   0.0000000116  0.000009  0.000012  0.000018  0.000000
                  ***Gradient check signals convergence***
              ***Rediagonalizing the Fockian in SOSCF/NRSCF***

               *****************************************************
               *                     SUCCESS                       *
               *           SCF CONVERGED AFTER  14 CYCLES          *
               *****************************************************

Old exchange energy                            =    -78.164024740 Eh
New exchange energy                            =    -78.164007555 Eh
Exchange energy change after final integration =      0.000017186 Eh
Total energy after final integration           =  -2225.342185048 Eh
Final COS-X integration done in                =    18.911 sec
Total Energy       :        -2225.34218505 Eh          -60554.63939 eV
  Last Energy change         ...   -3.4122e-08  Tolerance :   1.0000e-08
  Last MAX-Density change    ...    6.2172e-15  Tolerance :   1.0000e-07
             **** THE GBW FILE WAS UPDATED (/dev/shm/slurm.malcolms.9869179/9869179/S1/S1_OPT.gbw) ****
             **** DENSITY /dev/shm/slurm.malcolms.9869179/9869179/S1/S1_OPT.scfp WAS UPDATED ****
             **** ENERGY FILE WAS UPDATED (/dev/shm/slurm.malcolms.9869179/9869179/S1/S1_OPT.en.tmp) ****
             **** THE GBW FILE WAS UPDATED (/dev/shm/slurm.malcolms.9869179/9869179/S1/S1_OPT.gbw) ****
             **** DENSITY /dev/shm/slurm.malcolms.9869179/9869179/S1/S1_OPT.scfp WAS UPDATED ****
----------------
ORBITAL ENERGIES
----------------

  NO   OCC          E(Eh)            E(eV) 
   0   2.0000     -14.448365      -393.1600 
   1   2.0000     -14.448359      -393.1598 
   2   2.0000     -10.289343      -279.9872 
   3   2.0000     -10.289341      -279.9872 
   4   2.0000     -10.273421      -279.5540 
   5   2.0000     -10.273419      -279.5539 
   6   2.0000     -10.273369      -279.5526 
   7   2.0000     -10.273363      -279.5524 
   8   2.0000     -10.260087      -279.1912 
   9   2.0000     -10.254721      -279.0451 
  10   2.0000     -10.254706      -279.0447 
  11   2.0000     -10.251500      -278.9575 
  12   2.0000     -10.251490      -278.9572 
  13   2.0000     -10.249583      -278.9053 
  14   2.0000     -10.249568      -278.9049 
  15   2.0000     -10.248893      -278.8865 
  16   2.0000     -10.248890      -278.8865 
  17   2.0000     -10.248725      -278.8820 
  18   2.0000     -10.248707      -278.8815 
  19   2.0000     -10.248377      -278.8725 
  20   2.0000     -10.248373      -278.8724 
  21   2.0000     -10.245958      -278.8067 
  22   2.0000     -10.245955      -278.8066 
  23   2.0000     -10.245069      -278.7825 
  24   2.0000     -10.245068      -278.7825 
  25   2.0000     -10.245017      -278.7811 
  26   2.0000     -10.244854      -278.7766 
  27   2.0000     -10.243755      -278.7467 
  28   2.0000     -10.243733      -278.7461 
  29   2.0000     -10.243291      -278.7341 
  30   2.0000     -10.243206      -278.7318 
  31   2.0000     -10.242249      -278.7058 
  32   2.0000     -10.242233      -278.7053 
  33   2.0000     -10.242227      -278.7052 
  34   2.0000     -10.242223      -278.7050 
  35   2.0000     -10.236231      -278.5420 
  36   2.0000     -10.236227      -278.5419 
  37   2.0000     -10.236108      -278.5387 
  38   2.0000     -10.236105      -278.5386 
  39   2.0000     -10.235963      -278.5347 
  40   2.0000     -10.235958      -278.5346 
  41   2.0000     -10.235938      -278.5340 
  42   2.0000     -10.235932      -278.5339 
  43   2.0000     -10.235549      -278.5234 
  44   2.0000     -10.235545      -278.5233 
  45   2.0000     -10.235323      -278.5173 
  46   2.0000     -10.235319      -278.5172 
  47   2.0000     -10.234348      -278.4908 
  48   2.0000     -10.234334      -278.4904 
  49   2.0000     -10.234322      -278.4901 
  50   2.0000     -10.234318      -278.4900 
  51   2.0000     -10.233285      -278.4618 
  52   2.0000     -10.233243      -278.4607 
  53   2.0000     -10.228284      -278.3257 
  54   2.0000     -10.228273      -278.3255 
  55   2.0000     -10.228260      -278.3251 
  56   2.0000     -10.228260      -278.3251 
  57   2.0000      -1.029191       -28.0057 
  58   2.0000      -1.029190       -28.0057 
  59   2.0000      -0.927065       -25.2267 
  60   2.0000      -0.905596       -24.6425 
  61   2.0000      -0.905415       -24.6376 
  62   2.0000      -0.886664       -24.1274 
  63   2.0000      -0.875386       -23.8205 
  64   2.0000      -0.873773       -23.7766 
  65   2.0000      -0.873230       -23.7618 
  66   2.0000      -0.873225       -23.7617 
  67   2.0000      -0.857275       -23.3276 
  68   2.0000      -0.831449       -22.6249 
  69   2.0000      -0.830769       -22.6064 
  70   2.0000      -0.815860       -22.2007 
  71   2.0000      -0.806398       -21.9432 
  72   2.0000      -0.793911       -21.6034 
  73   2.0000      -0.785045       -21.3622 
  74   2.0000      -0.784932       -21.3591 
  75   2.0000      -0.779909       -21.2224 
  76   2.0000      -0.771771       -21.0010 
  77   2.0000      -0.771707       -20.9992 
  78   2.0000      -0.771058       -20.9815 
  79   2.0000      -0.766305       -20.8522 
  80   2.0000      -0.758087       -20.6286 
  81   2.0000      -0.749885       -20.4054 
  82   2.0000      -0.737492       -20.0682 
  83   2.0000      -0.737483       -20.0679 
  84   2.0000      -0.733696       -19.9649 
  85   2.0000      -0.716705       -19.5025 
  86   2.0000      -0.711964       -19.3735 
  87   2.0000      -0.689987       -18.7755 
  88   2.0000      -0.673446       -18.3254 
  89   2.0000      -0.672204       -18.2916 
  90   2.0000      -0.654076       -17.7983 
  91   2.0000      -0.652880       -17.7658 
  92   2.0000      -0.650865       -17.7109 
  93   2.0000      -0.642309       -17.4781 
[...]
    E[ 2] =     0.1281584328 (change=   0.1281584328)  3.487 eV
    E[ 3] =     0.1297068727 (change=   0.1297068727)  3.529 eV
    E[ 4] =     0.1305770301 (change=   0.1305770301)  3.553 eV
   Lowest Energy          :     0.103034202316
   Maximum Energy change  :     0.130577030067 (vector 4)
   Maximum residual norm  :     0.005554245591
   Repeating orthogonalization (< 0| 0>=1.276149e-06)
   Repeating orthogonalization (< 1|15>=3.373296e-03)
   Repeating orthogonalization (< 2|16>=5.044849e-01)
   Repeating orthogonalization (< 3|15>=4.693842e-01)
   Repeating orthogonalization (< 4|18>=1.947462e-02)
Storing the current CI vectors                 ... o.k.

                       ****Iteration    1****

Building the sigma vectors                     ...    Time for densities:            0.198
   Time for RI-J (Direct):        1.614
Average shell size            =     8.290 au
Total number of shells        =       462    
Av no of R-interacting shells =       192 
Av no of P-interacting shells =       462 
Av no of primary shells       =       105 
Av no of secondary shells     =       462 
Av no of tertiary shells      =       462 
Integration Timings:
Total Time                    =     4.9 sec
Basis fcn evaluation          =     0.0 sec
Density evaluation            =     0.2 sec
Integral evaluation           =     4.4 sec
K(P) evaluation               =     0.2 sec
   Time for K (COSX):             5.176
   Time for XC-Integration:       0.680
   Time for Sigma-Completion:     0.117
o.k.
Building the Hamiltonian                       ... o.k.
Diagonalizing the Hamiltonian                  ... o.k.
   Size of expansion space: 20
   lowest eigenvalues of A:
    E[ 0] =     0.0971963752 (change=  -0.0058378271)  2.645 eV
    E[ 1] =     0.1111016443 (change=  -0.0014285291)  3.023 eV
    E[ 2] =     0.1241152666 (change=  -0.0040431663)  3.377 eV
    E[ 3] =     0.1251105857 (change=  -0.0045962869)  3.404 eV
    E[ 4] =     0.1301672188 (change=  -0.0004098113)  3.542 eV
   Lowest Energy          :     0.097196375236
   Maximum Energy change  :     0.005837827080 (vector 0)
   Maximum residual norm  :     0.000437181668
   Repeating orthogonalization (< 0|15>=2.454350e-01)
   Repeating orthogonalization (< 1|16>=1.458207e-01)
   Repeating orthogonalization (< 2|20>=4.347864e-01)
   Repeating orthogonalization (< 3|21>=4.137590e-01)
   Repeating orthogonalization (< 4|19>=2.860912e-01)
Storing the current CI vectors                 ... o.k.

                       ****Iteration    2****

Building the sigma vectors                     ...    Time for densities:            0.196
   Time for RI-J (Direct):        1.600
Average shell size            =     8.290 au
Total number of shells        =       462    
Av no of R-interacting shells =       192 
Av no of P-interacting shells =       462 
Av no of primary shells       =       105 
Av no of secondary shells     =       462 
Av no of tertiary shells      =       462 
Integration Timings:
Total Time                    =     4.9 sec
Basis fcn evaluation          =     0.0 sec
Density evaluation            =     0.2 sec
Integral evaluation           =     4.4 sec
K(P) evaluation               =     0.2 sec
   Time for K (COSX):             5.193
   Time for XC-Integration:       0.681
   Time for Sigma-Completion:     0.117
o.k.
Building the Hamiltonian                       ... o.k.
Diagonalizing the Hamiltonian                  ... o.k.
   Size of expansion space: 25
   lowest eigenvalues of A:
    E[ 0] =     0.0967332834 (change=  -0.0004630918)  2.632 eV
    E[ 1] =     0.1107331979 (change=  -0.0003684464)  3.013 eV
    E[ 2] =     0.1233525307 (change=  -0.0007627359)  3.357 eV
    E[ 3] =     0.1244102766 (change=  -0.0007003091)  3.385 eV
    E[ 4] =     0.1300474449 (change=  -0.0001197739)  3.539 eV
   Lowest Energy          :     0.096733283409
   Maximum Energy change  :     0.000762735864 (vector 2)
   Maximum residual norm  :     0.000055440962
   Repeating orthogonalization (< 0|20>=3.525024e-01)
   Repeating orthogonalization (< 1|21>=2.729414e-01)
   Repeating orthogonalization (< 2|25>=3.714762e-01)
   Repeating orthogonalization (< 3|26>=8.755429e-01)
   Repeating orthogonalization (< 4|19>=2.907337e-01)
Storing the current CI vectors                 ... o.k.

                       ****Iteration    3****

Building the sigma vectors                     ...    Time for densities:            0.198
   Time for RI-J (Direct):        1.610
Average shell size            =     8.290 au
Total number of shells        =       462    
Av no of R-interacting shells =       192 
Av no of P-interacting shells =       462 
Av no of primary shells       =       105 
Av no of secondary shells     =       462 
Av no of tertiary shells      =       462 
Integration Timings:
Total Time                    =     4.9 sec
Basis fcn evaluation          =     0.0 sec
Density evaluation            =     0.2 sec
Integral evaluation           =     4.4 sec
K(P) evaluation               =     0.2 sec
   Time for K (COSX):             5.191
   Time for XC-Integration:       0.723
   Time for Sigma-Completion:     0.135
o.k.
Building the Hamiltonian                       ... o.k.
Diagonalizing the Hamiltonian                  ... o.k.
   Size of expansion space: 30
   lowest eigenvalues of A:
    E[ 0] =     0.0966545351 (change=  -0.0000787483)  2.630 eV
    E[ 1] =     0.1106932779 (change=  -0.0000399200)  3.012 eV
    E[ 2] =     0.1232372584 (change=  -0.0001152723)  3.353 eV
    E[ 3] =     0.1243215217 (change=  -0.0000887549)  3.383 eV
    E[ 4] =     0.1300405929 (change=  -0.0000068520)  3.538 eV
   Lowest Energy          :     0.096654535102
   Maximum Energy change  :     0.000115272253 (vector 2)
   Maximum residual norm  :     0.000011552230
   Repeating orthogonalization (< 0|20>=3.222235e-01)
   Repeating orthogonalization (< 1|21>=2.152827e-01)
   Repeating orthogonalization (< 2|22>=2.597489e-01)
   Repeating orthogonalization (< 3|31>=8.377025e-01)
   Repeating orthogonalization (< 4|32>=1.023373e-01)
Storing the current CI vectors                 ... o.k.

                       ****Iteration    4****

Building the sigma vectors                     ...    Time for densities:            0.194
   Time for RI-J (Direct):        1.646
Average shell size            =     8.290 au
Total number of shells        =       462    
Av no of R-interacting shells =       192 
Av no of P-interacting shells =       462 
Av no of primary shells       =       105 
Av no of secondary shells     =       462 
Av no of tertiary shells      =       462 
Integration Timings:
Total Time                    =     4.9 sec
Basis fcn evaluation          =     0.0 sec
Density evaluation            =     0.2 sec
Integral evaluation           =     4.4 sec
K(P) evaluation               =     0.2 sec
   Time for K (COSX):             5.186
   Time for XC-Integration:       0.686
   Time for Sigma-Completion:     0.116
o.k.
Building the Hamiltonian                       ... o.k.
Diagonalizing the Hamiltonian                  ... o.k.
   Size of expansion space: 35
   lowest eigenvalues of A:
    E[ 0] =     0.0966506880 (change=  -0.0000038471)  2.630 eV
    E[ 1] =     0.1106897309 (change=  -0.0000035470)  3.012 eV
    E[ 2] =     0.1232214928 (change=  -0.0000157656)  3.353 eV
    E[ 3] =     0.1243095966 (change=  -0.0000119251)  3.383 eV
    E[ 4] =     0.1300397083 (change=  -0.0000008846)  3.538 eV
   Lowest Energy          :     0.096650687953
   Maximum Energy change  :     0.000015765596 (vector 2)
   Maximum residual norm  :     0.000001205661
   Repeating orthogonalization (< 0|22>=1.499059e-01)
   Repeating orthogonalization (< 1|26>=3.257065e-01)
   Repeating orthogonalization (< 2|35>=6.997293e-01)
   Repeating orthogonalization (< 3|36>=8.310871e-01)
   Repeating orthogonalization (< 4|29>=3.572189e-01)
Storing the current CI vectors                 ... o.k.

                       ****Iteration    5****

Building the sigma vectors                     ...    Time for densities:            0.196
   Time for RI-J (Direct):        1.608
Average shell size            =     8.290 au
Total number of shells        =       462    
Av no of R-interacting shells =       192 
Av no of P-interacting shells =       462 
Av no of primary shells       =       105 
Av no of secondary shells     =       462 
Av no of tertiary shells      =       462 
Integration Timings:
Total Time                    =     4.9 sec
Basis fcn evaluation          =     0.0 sec
Density evaluation            =     0.2 sec
Integral evaluation           =     4.4 sec
K(P) evaluation               =     0.2 sec
   Time for K (COSX):             5.174
   Time for XC-Integration:       0.700
   Time for Sigma-Completion:     0.116
o.k.
Building the Hamiltonian                       ... o.k.
Diagonalizing the Hamiltonian                  ... o.k.
   Size of expansion space: 40
   lowest eigenvalues of A:
    E[ 0] =     0.0966503398 (change=  -0.0000003481)  2.630 eV
    E[ 1] =     0.1106893246 (change=  -0.0000004063)  3.012 eV
    E[ 2] =     0.1232195307 (change=  -0.0000019622)  3.353 eV
    E[ 3] =     0.1243079953 (change=  -0.0000016013)  3.383 eV
    E[ 4] =     0.1300394591 (change=  -0.0000002492)  3.538 eV
   Lowest Energy          :     0.096650339823
   Maximum Energy change  :     0.000001962165 (vector 2)
   Maximum residual norm  :     0.000000183693

      *** CONVERGENCE OF RESIDUAL NORM REACHED ***

Storing the converged CI vectors               ... /dev/shm/slurm.malcolms.9869179/9869179/S1/S1_OPT.cis1

                 *** DAVIDSON DONE ***

Total time for solving the CIS problem:    59.866sec

------------------------------------
TD-DFT/TDA EXCITED STATES (SINGLETS)
------------------------------------

the weight of the individual excitations are printed if larger than 1.0e-02

STATE  1:  E=   0.096650 au      2.630 eV    21212.3 cm**-1 <S**2> =   0.000000
   190a -> 193a  :     0.024842 (c= -0.15761238)
   191a -> 192a  :     0.949429 (c= -0.97438661)

STATE  2:  E=   0.110689 au      3.012 eV    24293.5 cm**-1 <S**2> =   0.000000
   189a -> 193a  :     0.033247 (c= -0.18233705)
   190a -> 192a  :     0.924748 (c= -0.96163822)
   191a -> 193a  :     0.033142 (c=  0.18204924)

STATE  3:  E=   0.123220 au      3.353 eV    27043.6 cm**-1 <S**2> =   0.000000
   186a -> 193a  :     0.013432 (c=  0.11589472)
   189a -> 192a  :     0.951562 (c= -0.97548015)

STATE  4:  E=   0.124308 au      3.383 eV    27282.5 cm**-1 <S**2> =   0.000000
   186a -> 192a  :     0.177359 (c=  0.42114005)
   190a -> 192a  :     0.018991 (c= -0.13780823)
   191a -> 193a  :     0.768331 (c= -0.87654481)

STATE  5:  E=   0.130039 au      3.539 eV    28540.4 cm**-1 <S**2> =   0.000000
   188a -> 192a  :     0.954230 (c=  0.97684690)
   188a -> 193a  :     0.039520 (c=  0.19879569)


-----------------------------
TD-DFT/TDA-EXCITATION SPECTRA
-----------------------------

Center of mass = ( -0.0002,  0.0015,  0.0084)
Calculating the Dipole integrals                  ... done
Transforming integrals                            ... done
Calculating the Linear Momentum integrals         ... done
Transforming integrals                            ... done
Calculating angular momentum integrals            ... done
Transforming integrals                            ... done

-----------------------------------------------------------------------------
         ABSORPTION SPECTRUM VIA TRANSITION ELECTRIC DIPOLE MOMENTS
-----------------------------------------------------------------------------
State   Energy    Wavelength  fosc         T2        TX        TY        TZ  
        (cm-1)      (nm)                 (au**2)    (au)      (au)      (au) 
-----------------------------------------------------------------------------
   1   21212.3    471.4   3.315855365  51.46162   7.17368  -0.00114  -0.00037
   2   24293.5    411.6   0.027376584   0.37099  -0.00045  -0.55028   0.26112
   3   27043.6    369.8   0.387870310   4.72170  -2.17295  -0.00021   0.00040
   4   27282.5    366.5   0.063188024   0.76248   0.00311  -0.78834   0.37548
   5   28540.4    350.4   0.000074003   0.00085   0.00312   0.02477   0.01518

-----------------------------------------------------------------------------
         ABSORPTION SPECTRUM VIA TRANSITION VELOCITY DIPOLE MOMENTS
-----------------------------------------------------------------------------
State   Energy    Wavelength   fosc        P2         PX        PY        PZ  
        (cm-1)      (nm)                 (au**2)     (au)      (au)      (au) 
-----------------------------------------------------------------------------
   1   21212.3    471.4   1.978224456   0.28679  -0.53553   0.00013  -0.00000
   2   24293.5    411.6   0.002017210   0.00033  -0.00001   0.01639  -0.00814
   3   27043.6    369.8   0.265547070   0.04908   0.22154  -0.00017   0.00005
   4   27282.5    366.5   0.002073190   0.00039  -0.00041   0.01751  -0.00894
   5   28540.4    350.4   0.000103484   0.00002   0.00024   0.00270   0.00358

-------------------------------------------------------------------
                             CD SPECTRUM
-------------------------------------------------------------------
State  Energy     Wavelength     R         MX        MY        MZ   
       (cm-1)       (nm)     (1e40*cgs)   (au)      (au)      (au)  
-------------------------------------------------------------------
   1   21212.3    471.4      0.30036   0.00023   0.50085   1.08986
   2   24293.5    411.6      0.07759   0.03924  -0.00020   0.00028
   3   27043.6    369.8     -0.05694  -0.00001  -0.24060  -0.49902
   4   27282.5    366.5      0.41056   0.05153   0.00045   0.00285
   5   28540.4    350.4     -0.51773   0.00895  -0.00659  -0.06341

-------------------------------------------------------------------
         CD SPECTRUM VIA TRANSITION VELOCITY DIPOLE MOMENTS        
-------------------------------------------------------------------
State  Energy     Wavelength     R         MX        MY        MZ   
       (cm-1)       (nm)     (1e40*cgs)   (au)      (au)      (au)  
-------------------------------------------------------------------
   1   21212.3    471.4     -0.29211   0.00023   0.50085   1.08986
   2   24293.5    411.6     -0.02492   0.03924  -0.00020   0.00028
   3   27043.6    369.8      0.04887  -0.00001  -0.24060  -0.49902
   4   27282.5    366.5     -0.14628   0.05153   0.00045   0.00285
   5   28540.4    350.4     -0.88000   0.00895  -0.00659  -0.06341

Total run time:       63.797 sec

           *** ORCA-CIS/TD-DFT FINISHED WITHOUT ERROR ***

Maximum memory used throughout the entire CIS-calculation: 575.9 MB

-----------------------
CIS/TD-DFT TOTAL ENERGY
-----------------------

    E(SCF)  =  -2225.346699344 Eh
    DE(CIS) =      0.096650340 Eh (Root  1)
    ----------------------------- ---------
    E(tot)  =  -2225.250049004 Eh



-------------------------------------------------------------------------------
                          DFT DISPERSION CORRECTION                            
                                                                               
                              DFTD3 V3.1  Rev 1                                
                          USING Becke-Johnson damping                          
-------------------------------------------------------------------------------
-------------------------   ----------------
Dispersion correction           -0.130750953
-------------------------   ----------------


-------------------------   --------------------
FINAL SINGLE POINT ENERGY     -2225.380799957458
-------------------------   --------------------

                                *** OPTIMIZATION RUN DONE ***

                            ***************************************
                            *     ORCA property calculations      *
                            ***************************************

                                    ---------------------
                                    Active property flags
                                    ---------------------
   (+) Dipole Moment


------------------------------------------------------------------------------
                       ORCA ELECTRIC PROPERTIES CALCULATION
------------------------------------------------------------------------------

Dipole Moment Calculation                       ... on
Quadrupole Moment Calculation                   ... off
Polarizability Calculation                      ... off
GBWName                                         ... /dev/shm/slurm.malcolms.9869179/9869179/S1/S1_OPT.gbw
Electron density                                ... /dev/shm/slurm.malcolms.9869179/9869179/S1/S1_OPT.scfp
The origin for moment calculation is the CENTER OF MASS  = (-0.000156,  0.001467  0.008362)

-------------
DIPOLE MOMENT
-------------
                                X             Y             Z
Electronic contribution:     -0.00006      -3.32154       1.84924
Nuclear contribution   :      0.00028       3.20748      -1.79976
                        -----------------------------------------
Total Dipole Moment    :      0.00022      -0.11405       0.04947
                        -----------------------------------------
Magnitude (a.u.)       :      0.12432
Magnitude (Debye)      :      0.31600



--------------------
Rotational spectrum 
--------------------
 
Rotational constants in cm-1:     0.005270     0.000247     0.000240 
Rotational constants in MHz :   158.003026     7.414210     7.199561 

 Dipole components along the rotational axes: 
x,y,z [a.u.] :     0.000234    -0.113133     0.051541 
x,y,z [Debye]:     0.000594    -0.287560     0.131008 

 

                        *** CIS RELAXED DENSITY ***

------------------------------------------------------------------------------
                       ORCA ELECTRIC PROPERTIES CALCULATION
------------------------------------------------------------------------------

Dipole Moment Calculation                       ... on
Quadrupole Moment Calculation                   ... off
Polarizability Calculation                      ... off
GBWName                                         ... /dev/shm/slurm.malcolms.9869179/9869179/S1/S1_OPT.gbw
Electron density                                ... /dev/shm/slurm.malcolms.9869179/9869179/S1/S1_OPT.cisp
The origin for moment calculation is the CENTER OF MASS  = (-0.000156,  0.001467  0.008362)

-------------
DIPOLE MOMENT
-------------
                                X             Y             Z
Electronic contribution:     -0.00425      -2.78677       1.59459
Nuclear contribution   :      0.00028       3.20748      -1.79976
                        -----------------------------------------
Total Dipole Moment    :     -0.00397       0.42071      -0.20517
                        -----------------------------------------
Magnitude (a.u.)       :      0.46809
Magnitude (Debye)      :      1.18980



--------------------
Rotational spectrum 
--------------------
 
Rotational constants in cm-1:     0.005270     0.000247     0.000240 
Rotational constants in MHz :   158.003026     7.414210     7.199561 

 Dipole components along the rotational axes: 
x,y,z [a.u.] :    -0.004025     0.416907    -0.212797 
x,y,z [Debye]:    -0.010230     1.059695    -0.540887 

 

Timings for individual modules:

Sum of individual times         ...     1763.738 sec (=  29.396 min)
GTO integral calculation        ...       18.715 sec (=   0.312 min)   1.1 %
SCF iterations                  ...      765.488 sec (=  12.758 min)  43.4 %
CIS module                      ...      349.404 sec (=   5.823 min)  19.8 %
SCF Gradient evaluation         ...      627.562 sec (=  10.459 min)  35.6 %
Geometry relaxation             ...        2.569 sec (=   0.043 min)   0.1 %
                             ****ORCA TERMINATED NORMALLY****
TOTAL RUN TIME: 0 days 0 hours 29 minutes 33 seconds 548 msec
