
                                 *****************
                                 * O   R   C   A *
                                 *****************

                                            #,                                       
                                            ###                                      
                                            ####                                     
                                            #####                                    
                                            ######                                   
                                           ########,                                 
                                     ,,################,,,,,                         
                               ,,#################################,,                 
                          ,,##########################################,,             
                       ,#########################################, ''#####,          
                    ,#############################################,,   '####,        
                  ,##################################################,,,,####,       
                ,###########''''           ''''###############################       
              ,#####''   ,,,,##########,,,,          '''####'''          '####       
            ,##' ,,,,###########################,,,                        '##       
           ' ,,###''''                  '''############,,,                           
         ,,##''                                '''############,,,,        ,,,,,,###''
      ,#''                                            '''#######################'''  
     '                                                          ''''####''''         
             ,#######,   #######,   ,#######,      ##                                
            ,#'     '#,  ##    ##  ,#'     '#,    #''#        ######   ,####,        
            ##       ##  ##   ,#'  ##            #'  '#       #        #'  '#        
            ##       ##  #######   ##           ,######,      #####,   #    #        
            '#,     ,#'  ##    ##  '#,     ,#' ,#      #,         ##   #,  ,#        
             '#######'   ##     ##  '#######'  #'      '#     #####' # '####'        



                  #######################################################
                  #                        -***-                        #
                  #          Department of theory and spectroscopy      #
                  #    Directorship and core code : Frank Neese         #
                  #        Max Planck Institute fuer Kohlenforschung    #
                  #                Kaiser Wilhelm Platz 1               #
                  #                 D-45470 Muelheim/Ruhr               #
                  #                      Germany                        #
                  #                                                     #
                  #                  All rights reserved                #
                  #                        -***-                        #
                  #######################################################


                         Program Version 5.0.3 -  RELEASE  -


 With contributions from (in alphabetic order):
   Daniel Aravena         : Magnetic Suceptibility
   Michael Atanasov       : Ab Initio Ligand Field Theory (pilot matlab implementation)
   Alexander A. Auer      : GIAO ZORA, VPT2 properties, NMR spectrum
   Ute Becker             : Parallelization
   Giovanni Bistoni       : ED, misc. LED, open-shell LED, HFLD
   Martin Brehm           : Molecular dynamics
   Dmytro Bykov           : SCF Hessian
   Vijay G. Chilkuri      : MRCI spin determinant printing, contributions to CSF-ICE
   Dipayan Datta          : RHF DLPNO-CCSD density
   Achintya Kumar Dutta   : EOM-CC, STEOM-CC
   Dmitry Ganyushin       : Spin-Orbit,Spin-Spin,Magnetic field MRCI
   Miquel Garcia          : C-PCM and meta-GGA Hessian, CC/C-PCM, Gaussian charge scheme
   Yang Guo               : DLPNO-NEVPT2, F12-NEVPT2, CIM, IAO-localization
   Andreas Hansen         : Spin unrestricted coupled pair/coupled cluster methods
   Benjamin Helmich-Paris : MC-RPA, TRAH-SCF, COSX integrals
   Lee Huntington         : MR-EOM, pCC
   Robert Izsak           : Overlap fitted RIJCOSX, COSX-SCS-MP3, EOM
   Marcus Kettner         : VPT2
   Christian Kollmar      : KDIIS, OOCD, Brueckner-CCSD(T), CCSD density, CASPT2, CASPT2-K
   Simone Kossmann        : Meta GGA functionals, TD-DFT gradient, OOMP2, MP2 Hessian
   Martin Krupicka        : Initial AUTO-CI
   Lucas Lang             : DCDCAS
   Marvin Lechner         : AUTO-CI (C++ implementation), FIC-MRCC
   Dagmar Lenk            : GEPOL surface, SMD
   Dimitrios Liakos       : Extrapolation schemes; Compound Job, initial MDCI parallelization
   Dimitrios Manganas     : Further ROCIS development; embedding schemes
   Dimitrios Pantazis     : SARC Basis sets
   Anastasios Papadopoulos: AUTO-CI, single reference methods and gradients
   Taras Petrenko         : DFT Hessian,TD-DFT gradient, ASA, ECA, R-Raman, ABS, FL, XAS/XES, NRVS
   Peter Pinski           : DLPNO-MP2, DLPNO-MP2 Gradient
   Christoph Reimann      : Effective Core Potentials
   Marius Retegan         : Local ZFS, SOC
   Christoph Riplinger    : Optimizer, TS searches, QM/MM, DLPNO-CCSD(T), (RO)-DLPNO pert. Triples
   Tobias Risthaus        : Range-separated hybrids, TD-DFT gradient, RPA, STAB
   Michael Roemelt        : Original ROCIS implementation
   Masaaki Saitow         : Open-shell DLPNO-CCSD energy and density
   Barbara Sandhoefer     : DKH picture change effects
   Avijit Sen             : IP-ROCIS
   Kantharuban Sivalingam : CASSCF convergence, NEVPT2, FIC-MRCI
   Bernardo de Souza      : ESD, SOC TD-DFT
   Georgi Stoychev        : AutoAux, RI-MP2 NMR, DLPNO-MP2 response
   Willem Van den Heuvel  : Paramagnetic NMR
   Boris Wezisla          : Elementary symmetry handling
   Frank Wennmohs         : Technical directorship


 We gratefully acknowledge several colleagues who have allowed us to
 interface, adapt or use parts of their codes:
   Stefan Grimme, W. Hujo, H. Kruse, P. Pracht,  : VdW corrections, initial TS optimization,
                  C. Bannwarth, S. Ehlert          DFT functionals, gCP, sTDA/sTD-DF
   Ed Valeev, F. Pavosevic, A. Kumar             : LibInt (2-el integral package), F12 methods
   Garnet Chan, S. Sharma, J. Yang, R. Olivares  : DMRG
   Ulf Ekstrom                                   : XCFun DFT Library
   Mihaly Kallay                                 : mrcc  (arbitrary order and MRCC methods)
   Jiri Pittner, Ondrej Demel                    : Mk-CCSD
   Frank Weinhold                                : gennbo (NPA and NBO analysis)
   Christopher J. Cramer and Donald G. Truhlar   : smd solvation model
   Lars Goerigk                                  : TD-DFT with DH, B97 family of functionals
   V. Asgeirsson, H. Jonsson                     : NEB implementation
   FAccTs GmbH                                   : IRC, NEB, NEB-TS, DLPNO-Multilevel, CI-OPT
                                                   MM, QMMM, 2- and 3-layer-ONIOM, Crystal-QMMM,
                                                   LR-CPCM, SF, NACMEs, symmetry and pop. for TD-DFT,
                                                   nearIR, NL-DFT gradient (VV10), updates on ESD,
                                                   ML-optimized integration grids
   S Lehtola, MJT Oliveira, MAL Marques          : LibXC Library
   Liviu Ungur et al                             : ANISO software


 Your calculation uses the libint2 library for the computation of 2-el integrals
 For citations please refer to: http://libint.valeyev.net

 Your ORCA version has been built with support for libXC version: 5.1.0
 For citations please refer to: https://tddft.org/programs/libxc/

 This ORCA versions uses:
   CBLAS   interface :  Fast vector & matrix operations
   LAPACKE interface :  Fast linear algebra routines
   SCALAPACK package :  Parallel linear algebra routines
   Shared memory     :  Shared parallel matrices
   BLAS/LAPACK       :  OpenBLAS 0.3.15  USE64BITINT DYNAMIC_ARCH NO_AFFINITY SkylakeX SINGLE_THREADED
        Core in use  :  SkylakeX
   Copyright (c) 2011-2014, The OpenBLAS Project




***************************************
The coordinates will be read from file: T1_XTB_OPT_XYZ.xyz
***************************************


Your calculation utilizes the atom-pairwise dispersion correction
with the Becke-Johnson damping scheme (D3BJ)
Cite in your paper:
S.Grimme, S.Ehrlich, L.Goerigk, J Comput Chem, (2011), 32, 1456–1465 
S.Grimme, J.Antony, S.Ehrlich and H.Krieg, J.Chem.Phys., 132, (2010), 154104 
   

================================================================================

----- Orbital basis set information -----
Your calculation utilizes the basis: def2-SVP
   F. Weigend and R. Ahlrichs, Phys. Chem. Chem. Phys. 7, 3297 (2005).

----- AuxJ basis set information -----
Your calculation utilizes the auxiliary basis: def2/J
   F. Weigend, Phys. Chem. Chem. Phys. 8, 1057 (2006).

================================================================================
                                        WARNINGS
                       Please study these warnings very carefully!
================================================================================

INFO   : Checking CIS options ...

WARNING: (CIS/TDDFT): IROOTMULT=TRIPLETS needs TRIPLETS set to TRUE
  ===> : ajusting flags

WARNING: CIS/ROCIS methods need fully converged wavefunctions
  ===> : Setting SCFConvForced true
         You can overwrite this default with %scf ConvForced false 


INFO   : the flag for use of the SHARK integral package has been found!

================================================================================
                                       INPUT FILE
================================================================================
NAME = /dev/shm/slurm.malcolms.9869179/9869179/T2/T2_OPT.inp
|  1> ! PBE0 def2-SVP D3BJ def2/J RIJCOSX tightSCF noautostart miniprint nopop defgrid3 Opt
|  2> %maxcore    4000
|  3> %pal    nprocs  40  end
|  4> %geom	Convergence	loose
|  5> 	MaxIter	5
|  6> end
|  7> %tddft  PrintLevel  3
|  8> 	IRootMult	Triplet
|  9> 	NRoots	5
| 10> 	IRoot	2
| 11> 	TDA	True
| 12>         MaxDim  10
| 13> end
| 14> * xyzfile 0 1 T1_XTB_OPT_XYZ.xyz
| 15> 
| 16> 
| 17>                          ****END OF INPUT****
================================================================================

                       *****************************
                       * Geometry Optimization Run *
                       *****************************

Geometry optimization settings:
Update method            Update   .... BFGS
Choice of coordinates    CoordSys .... Z-matrix Internals
Initial Hessian          InHess   .... Almoef's Model

Convergence Tolerances:
Energy Change            TolE     ....  3.0000e-05 Eh
Max. Gradient            TolMAXG  ....  2.0000e-03 Eh/bohr
RMS Gradient             TolRMSG  ....  5.0000e-04 Eh/bohr
Max. Displacement        TolMAXD  ....  1.0000e-02 bohr
RMS Displacement         TolRMSD  ....  7.0000e-03 bohr
Strict Convergence                ....  False
------------------------------------------------------------------------------
                        ORCA OPTIMIZATION COORDINATE SETUP
------------------------------------------------------------------------------

The optimization will be done in new redundant internal coordinates
Making redundant internal coordinates   ...  (new redundants) done
Evaluating the initial hessian          ...  (Almloef) done
Evaluating the coordinates              ...  done
Calculating the B-matrix                .... done
Calculating the G-matrix                .... done
Diagonalizing the G-matrix              .... done
Small eigenvalue found = 1.163e-04
Small eigenvalue found = 4.312e-04
Small eigenvalue found = 7.234e-04
Small eigenvalue found = 1.581e-03
Small eigenvalue found = 2.132e-03
Small eigenvalue found = 2.476e-03
Small eigenvalue found = 4.415e-03
Small eigenvalue found = 6.222e-03
Small eigenvalue found = 6.320e-03
Small eigenvalue found = 9.579e-03
Small eigenvalue found = 1.106e-02
Small eigenvalue found = 1.988e-02
Small eigenvalue found = 2.039e-02
Small eigenvalue found = 2.816e-02
Small eigenvalue found = 2.915e-02
The first mode is                       ....  284
The number of degrees of freedom        ....  285

    -----------------------------------------------------------------
                    Redundant Internal Coordinates


    -----------------------------------------------------------------
         Definition                    Initial Value    Approx d2E/dq
    -----------------------------------------------------------------
      1. B(C   1,C   0)                  1.5319         0.371007   
      2. B(C   2,C   1)                  1.5319         0.370996   
      3. B(C   3,C   1)                  1.5138         0.396505   
      4. B(C   4,C   3)                  1.3577         0.703550   
      5. B(C   5,C   4)                  1.4243         0.550787   
      6. B(C   6,C   5)                  1.4093         0.582062   
      7. B(C   7,C   6)                  1.3766         0.656274   
      8. B(C   8,C   7)                  1.4200         0.559557   
      9. B(C   9,C   8)                  1.4113         0.577732   
     10. B(C  10,C   9)                  1.3721         0.667321   
     11. B(C  11,C  10)                  1.3984         0.605717   
     12. B(N  12,C  11)                  1.3963         0.546777   
     13. B(C  13,N  12)                  1.3814         0.577533   
     14. B(C  14,C  13)                  1.3880         0.629478   
     15. B(C  15,C  14)                  1.3819         0.643659   
     16. B(C  16,C  15)                  1.3930         0.618062   
     17. B(C  17,C  16)                  1.3813         0.645163   
     18. B(C  18,C  17)                  1.3878         0.629793   
     19. B(C  18,C  13)                  1.4143         0.571479   
     20. B(C  19,C  18)                  1.4368         0.526103   
     21. B(C  20,C  19)                  1.3878         0.629790   
     22. B(C  21,C  20)                  1.3813         0.645172   
     23. B(C  22,C  21)                  1.3929         0.618065   
     24. B(C  23,C  22)                  1.3819         0.643625   
     25. B(C  24,C  23)                  1.3880         0.629490   
     26. B(C  24,C  19)                  1.4143         0.571443   
     27. B(C  24,N  12)                  1.3814         0.577459   
     28. B(C  25,C  11)                  1.3985         0.605498   
     29. B(C  26,C  25)                  1.3714         0.668899   
     30. B(C  26,C   8)                  1.4124         0.575445   
     31. B(C  27,C   5)                  1.4247         0.550003   
     32. B(C  28,C  27)                  1.3631         0.689640   
     33. B(C  29,C  28)                  1.4086         0.583504   
     34. B(C  29,C   3)                  1.4263         0.546739   
     35. B(C  30,C  29)                  1.4088         0.583076   
     36. B(C  31,C  30)                  1.4086         0.583467   
     37. B(C  32,C  31)                  1.3631         0.689668   
     38. B(C  33,C  32)                  1.4247         0.549959   
     39. B(C  34,C  33)                  1.4093         0.582137   
     40. B(C  35,C  34)                  1.3767         0.656115   
     41. B(C  36,C  35)                  1.4200         0.559614   
     42. B(C  37,C  36)                  1.4124         0.575410   
     43. B(C  38,C  37)                  1.3714         0.668871   
     44. B(C  39,C  38)                  1.3985         0.605481   
     45. B(N  40,C  39)                  1.3963         0.546756   
     46. B(C  41,N  40)                  1.3814         0.577464   
     47. B(C  42,C  41)                  1.3880         0.629475   
     48. B(C  43,C  42)                  1.3819         0.643652   
     49. B(C  44,C  43)                  1.3929         0.618065   
     50. B(C  45,C  44)                  1.3813         0.645188   
     51. B(C  46,C  45)                  1.3878         0.629770   
     52. B(C  46,C  41)                  1.4143         0.571476   
     53. B(C  47,C  46)                  1.4368         0.526140   
     54. B(C  48,C  47)                  1.3878         0.629758   
     55. B(C  49,C  48)                  1.3813         0.645202   
     56. B(C  50,C  49)                  1.3930         0.618054   
     57. B(C  51,C  50)                  1.3819         0.643620   
     58. B(C  52,C  51)                  1.3880         0.629481   
     59. B(C  52,C  47)                  1.4143         0.571456   
     60. B(C  52,N  40)                  1.3815         0.577438   
     61. B(C  53,C  39)                  1.3984         0.605706   
     62. B(C  54,C  53)                  1.3721         0.667376   
     63. B(C  54,C  36)                  1.4113         0.577685   
     64. B(C  55,C  33)                  1.4243         0.550789   
     65. B(C  56,C  55)                  1.3577         0.703512   
     66. B(C  56,C  30)                  1.4263         0.546786   
     67. B(C  56,C   1)                  1.5138         0.396520   
     68. B(H  57,C   0)                  1.0876         0.363336   
     69. B(H  58,C   0)                  1.0876         0.363352   
     70. B(H  59,C   0)                  1.0880         0.362741   
     71. B(H  60,C   2)                  1.0876         0.363348   
     72. B(H  61,C   2)                  1.0875         0.363358   
     73. B(H  62,C   2)                  1.0880         0.362726   
     74. B(H  63,C   4)                  1.0790         0.374956   
     75. B(H  64,C   6)                  1.0821         0.370745   
     76. B(H  65,C   7)                  1.0814         0.371680   
     77. B(H  66,C   9)                  1.0785         0.375579   
     78. B(H  67,C  10)                  1.0802         0.373255   
     79. B(H  68,C  14)                  1.0794         0.374468   
     80. B(H  69,C  15)                  1.0800         0.373548   
     81. B(H  70,C  16)                  1.0798         0.373826   
     82. B(H  71,C  17)                  1.0796         0.374190   
     83. B(H  72,C  20)                  1.0796         0.374191   
     84. B(H  73,C  21)                  1.0798         0.373827   
     85. B(H  74,C  22)                  1.0800         0.373559   
     86. B(H  75,C  23)                  1.0793         0.374477   
     87. B(H  76,C  25)                  1.0801         0.373439   
     88. B(H  77,C  26)                  1.0808         0.372466   
     89. B(H  78,C  27)                  1.0814         0.371596   
     90. B(H  79,C  28)                  1.0801         0.373413   
     91. B(H  80,C  31)                  1.0801         0.373428   
     92. B(H  81,C  32)                  1.0814         0.371610   
     93. B(H  82,C  34)                  1.0820         0.370775   
     94. B(H  83,C  35)                  1.0814         0.371709   
     95. B(H  84,C  37)                  1.0808         0.372478   
     96. B(H  85,C  38)                  1.0801         0.373453   
     97. B(H  86,C  42)                  1.0793         0.374476   
     98. B(H  87,C  43)                  1.0800         0.373550   
     99. B(H  88,C  44)                  1.0798         0.373826   
    100. B(H  89,C  45)                  1.0796         0.374192   
    101. B(H  90,C  48)                  1.0795         0.374196   
    102. B(H  91,C  49)                  1.0798         0.373828   
    103. B(H  92,C  50)                  1.0800         0.373564   
    104. B(H  93,C  51)                  1.0793         0.374482   
    105. B(H  94,C  53)                  1.0802         0.373270   
    106. B(H  95,C  54)                  1.0785         0.375601   
    107. B(H  96,C  55)                  1.0790         0.374948   
    108. A(C   1,C   0,H  59)          110.1993         0.324341   
    109. A(C   1,C   0,H  57)          110.3593         0.324428   
    110. A(H  57,C   0,H  59)          108.5925         0.291583   
    111. A(H  58,C   0,H  59)          108.5935         0.291585   
    112. A(H  57,C   0,H  58)          108.6824         0.291660   
    113. A(C   1,C   0,H  58)          110.3618         0.324430   
    114. A(C   2,C   1,C  56)          111.1000         0.366642   
    115. A(C   2,C   1,C   3)          111.0956         0.366640   
    116. A(C   3,C   1,C  56)          101.6422         0.370853   
    117. A(C   0,C   1,C   3)          111.1288         0.366642   
    118. A(C   0,C   1,C   2)          110.4794         0.362494   
    119. A(C   0,C   1,C  56)          111.1219         0.366644   
    120. A(C   1,C   2,H  60)          110.3616         0.324428   
    121. A(H  60,C   2,H  61)          108.6833         0.291663   
    122. A(C   1,C   2,H  61)          110.3641         0.324430   
    123. A(H  60,C   2,H  62)          108.5948         0.291583   
    124. A(H  61,C   2,H  62)          108.5951         0.291584   
    125. A(C   1,C   2,H  62)          110.1900         0.324337   
    126. A(C   1,C   3,C  29)          109.9799         0.392110   
    127. A(C   4,C   3,C  29)          121.3469         0.434118   
    128. A(C   1,C   3,C   4)          128.6732         0.409913   
    129. A(C   3,C   4,H  63)          120.3668         0.363066   
    130. A(C   3,C   4,C   5)          120.1104         0.434695   
    131. A(C   5,C   4,H  63)          119.5229         0.348294   
    132. A(C   4,C   5,C   6)          123.5885         0.420177   
    133. A(C   6,C   5,C  27)          118.7245         0.420070   
    134. A(C   4,C   5,C  27)          117.6870         0.415957   
    135. A(C   7,C   6,H  64)          118.0941         0.358096   
    136. A(C   5,C   6,C   7)          126.7127         0.433576   
    137. A(C   5,C   6,H  64)          115.1932         0.350885   
    138. A(C   6,C   7,H  65)          118.5488         0.358249   
    139. A(C   6,C   7,C   8)          126.4616         0.430514   
    140. A(C   8,C   7,H  65)          114.9896         0.348706   
    141. A(C   7,C   8,C   9)          124.0136         0.420802   
    142. A(C   9,C   8,C  26)          116.9051         0.422911   
    143. A(C   7,C   8,C  26)          119.0813         0.420504   
    144. A(C   8,C   9,H  66)          119.7359         0.351211   
    145. A(C   8,C   9,C  10)          121.4037         0.434296   
    146. A(C  10,C   9,H  66)          118.8566         0.359908   
    147. A(C   9,C  10,H  67)          120.1866         0.359527   
    148. A(C  11,C  10,H  67)          119.1321         0.353661   
    149. A(C   9,C  10,C  11)          120.6597         0.438013   
    150. A(C  10,C  11,N  12)          120.5215         0.419879   
    151. A(N  12,C  11,C  25)          120.5125         0.419852   
    152. A(C  10,C  11,C  25)          118.9660         0.430417   
    153. A(C  13,N  12,C  24)          108.3170         0.417673   
    154. A(C  11,N  12,C  24)          125.8568         0.413627   
    155. A(C  11,N  12,C  13)          125.8261         0.413636   
    156. A(N  12,C  13,C  14)          129.5712         0.426933   
    157. A(C  14,C  13,C  18)          121.0015         0.428925   
    158. A(N  12,C  13,C  18)          109.3536         0.419620   
    159. A(C  13,C  14,C  15)          117.8430         0.438200   
    160. A(C  13,C  14,H  68)          121.2735         0.356172   
    161. A(C  15,C  14,H  68)          120.8777         0.357523   
    162. A(C  14,C  15,H  69)          119.2272         0.357373   
    163. A(C  16,C  15,H  69)          119.2760         0.354920   
    164. A(C  14,C  15,C  16)          121.4961         0.436757   
    165. A(C  15,C  16,H  70)          119.2632         0.354964   
    166. A(C  15,C  16,C  17)          120.9341         0.436941   
    167. A(C  17,C  16,H  70)          119.7990         0.357560   
    168. A(C  16,C  17,C  18)          118.6144         0.438424   
    169. A(C  18,C  17,H  71)          120.4315         0.356158   
    170. A(C  16,C  17,H  71)          120.9532         0.357620   
    171. A(C  17,C  18,C  19)          133.4290         0.422657   
    172. A(C  13,C  18,C  17)          120.0782         0.428963   
    173. A(C  13,C  18,C  19)          106.4877         0.415399   
    174. A(C  20,C  19,C  24)          120.0799         0.428958   
    175. A(C  18,C  19,C  24)          106.4917         0.415395   
    176. A(C  18,C  19,C  20)          133.4234         0.422656   
    177. A(C  19,C  20,C  21)          118.6136         0.438425   
    178. A(C  21,C  20,H  72)          120.9552         0.357620   
    179. A(C  19,C  20,H  72)          120.4304         0.356157   
    180. A(C  22,C  21,H  73)          119.2646         0.354965   
    181. A(C  20,C  21,C  22)          120.9336         0.436942   
    182. A(C  20,C  21,H  73)          119.7982         0.357561   
    183. A(C  21,C  22,C  23)          121.4983         0.436753   
    184. A(C  23,C  22,H  74)          119.2257         0.357372   
    185. A(C  21,C  22,H  74)          119.2753         0.354922   
    186. A(C  24,C  23,H  75)          121.2772         0.356175   
    187. A(C  22,C  23,H  75)          120.8757         0.357521   
    188. A(C  22,C  23,C  24)          117.8414         0.438198   
    189. A(C  19,C  24,C  23)          121.0012         0.428922   
    190. A(N  12,C  24,C  23)          129.5766         0.426925   
    191. A(N  12,C  24,C  19)          109.3491         0.419605   
    192. A(C  11,C  25,H  76)          119.3155         0.353669   
    193. A(C  11,C  25,C  26)          120.2426         0.438171   
    194. A(C  26,C  25,H  76)          120.4205         0.359702   
    195. A(C   8,C  26,C  25)          121.8227         0.434170   
    196. A(C  25,C  26,H  77)          119.4338         0.359542   
    197. A(C   8,C  26,H  77)          118.7401         0.350482   
    198. A(C   5,C  27,C  28)          122.5158         0.433025   
    199. A(C  28,C  27,H  78)          119.6902         0.361274   
    200. A(C   5,C  27,H  78)          117.7940         0.347683   
    201. A(C  27,C  28,C  29)          119.1046         0.437660   
    202. A(C  29,C  28,H  79)          119.9823         0.351458   
    203. A(C  27,C  28,H  79)          120.9131         0.361575   
    204. A(C  28,C  29,C  30)          131.5668         0.424663   
    205. A(C   3,C  29,C  30)          109.1979         0.419754   
    206. A(C   3,C  29,C  28)          119.2352         0.419810   
    207. A(C  29,C  30,C  31)          131.5651         0.424658   
    208. A(C  31,C  30,C  56)          119.2351         0.419811   
    209. A(C  29,C  30,C  56)          109.1998         0.419761   
    210. A(C  30,C  31,C  32)          119.1035         0.437658   
    211. A(C  32,C  31,H  80)          120.9128         0.361580   
    212. A(C  30,C  31,H  80)          119.9837         0.351456   
    213. A(C  31,C  32,C  33)          122.5167         0.433022   
    214. A(C  33,C  32,H  81)          117.7929         0.347680   
    215. A(C  31,C  32,H  81)          119.6903         0.361279   
    216. A(C  32,C  33,C  34)          118.7199         0.420074   
    217. A(C  34,C  33,C  55)          123.5929         0.420187   
    218. A(C  32,C  33,C  55)          117.6872         0.415952   
    219. A(C  33,C  34,C  35)          126.7207         0.433567   
    220. A(C  33,C  34,H  82)          115.1906         0.350898   
    221. A(C  35,C  34,H  82)          118.0887         0.358086   
    222. A(C  34,C  35,C  36)          126.4464         0.430503   
    223. A(C  36,C  35,H  83)          114.9994         0.348717   
    224. A(C  34,C  35,H  83)          118.5541         0.358239   
    225. A(C  35,C  36,C  37)          119.0909         0.420507   
    226. A(C  35,C  36,C  54)          124.0065         0.420803   
    227. A(C  37,C  36,C  54)          116.9025         0.422900   
    228. A(C  36,C  37,C  38)          121.8230         0.434162   
    229. A(C  38,C  37,H  84)          119.4339         0.359542   
    230. A(C  36,C  37,H  84)          118.7394         0.350481   
    231. A(C  37,C  38,C  39)          120.2439         0.438165   
    232. A(C  39,C  38,H  85)          119.3183         0.353670   
    233. A(C  37,C  38,H  85)          120.4170         0.359702   
    234. A(C  38,C  39,N  40)          120.5221         0.419847   
    235. A(N  40,C  39,C  53)          120.5140         0.419875   
    236. A(C  38,C  39,C  53)          118.9638         0.430413   
    237. A(C  39,N  40,C  41)          125.8261         0.413625   
    238. A(C  41,N  40,C  52)          108.3175         0.417661   
    239. A(C  39,N  40,C  52)          125.8565         0.413621   
    240. A(N  40,C  41,C  42)          129.5769         0.426923   
    241. A(C  42,C  41,C  46)          120.9977         0.428924   
    242. A(N  40,C  41,C  46)          109.3513         0.419610   
    243. A(C  41,C  42,C  43)          117.8451         0.438199   
    244. A(C  43,C  42,H  86)          120.8730         0.357523   
    245. A(C  41,C  42,H  86)          121.2762         0.356173   
    246. A(C  44,C  43,H  87)          119.2758         0.354920   
    247. A(C  42,C  43,H  87)          119.2267         0.357373   
    248. A(C  42,C  43,C  44)          121.4968         0.436756   
    249. A(C  45,C  44,H  88)          119.8001         0.357563   
    250. A(C  43,C  44,H  88)          119.2639         0.354965   
    251. A(C  43,C  44,C  45)          120.9323         0.436944   
    252. A(C  46,C  45,H  89)          120.4304         0.356156   
    253. A(C  44,C  45,H  89)          120.9536         0.357622   
    254. A(C  44,C  45,C  46)          118.6150         0.438425   
    255. A(C  45,C  46,C  47)          133.4252         0.422659   
    256. A(C  41,C  46,C  47)          106.4894         0.415404   
    257. A(C  41,C  46,C  45)          120.0802         0.428960   
    258. A(C  48,C  47,C  52)          120.0811         0.428956   
    259. A(C  46,C  47,C  52)          106.4926         0.415401   
    260. A(C  46,C  47,C  48)          133.4216         0.422658   
    261. A(C  49,C  48,H  90)          120.9561         0.357624   
    262. A(C  47,C  48,H  90)          120.4293         0.356155   
    263. A(C  47,C  48,C  49)          118.6137         0.438425   
    264. A(C  50,C  49,H  91)          119.2644         0.354964   
    265. A(C  48,C  49,H  91)          119.7992         0.357564   
    266. A(C  48,C  49,C  50)          120.9328         0.436944   
    267. A(C  51,C  50,H  92)          119.2253         0.357372   
    268. A(C  49,C  50,H  92)          119.2759         0.354921   
    269. A(C  49,C  50,C  51)          121.4982         0.436751   
    270. A(C  52,C  51,H  93)          121.2798         0.356175   
    271. A(C  50,C  51,H  93)          120.8717         0.357521   
    272. A(C  50,C  51,C  52)          117.8428         0.438196   
    273. A(C  47,C  52,C  51)          120.9988         0.428922   
    274. A(N  40,C  52,C  51)          129.5801         0.426921   
    275. A(N  40,C  52,C  47)          109.3484         0.419604   
    276. A(C  39,C  53,C  54)          120.6613         0.438018   
    277. A(C  54,C  53,H  94)          120.1824         0.359535   
    278. A(C  39,C  53,H  94)          119.1341         0.353662   
    279. A(C  36,C  54,C  53)          121.4053         0.434296   
    280. A(C  53,C  54,H  95)          118.8542         0.359916   
    281. A(C  36,C  54,H  95)          119.7360         0.351209   
    282. A(C  33,C  55,C  56)          120.1082         0.434691   
    283. A(C  56,C  55,H  96)          120.3702         0.363061   
    284. A(C  33,C  55,H  96)          119.5215         0.348293   
    285. A(C  30,C  56,C  55)          121.3492         0.434121   
    286. A(C   1,C  56,C  55)          128.6705         0.409912   
    287. A(C   1,C  56,C  30)          109.9802         0.392118   
    288. D(C  56,C   1,C   0,H  58)    176.1596         0.011000   
    289. D(C   2,C   1,C   0,H  59)   -179.9743         0.011000   
    290. D(C   3,C   1,C   0,H  57)   -176.1059         0.011000   
    291. D(C  56,C   1,C   0,H  59)     56.2298         0.011000   
    292. D(C   3,C   1,C   0,H  59)    -56.1790         0.011000   
    293. D(C   2,C   1,C   0,H  57)     60.0988         0.011000   
    294. D(C   3,C   1,C   0,H  58)     63.7509         0.011000   
    295. D(C  56,C   1,C   0,H  57)    -63.6972         0.011000   
    296. D(C   2,C   1,C   0,H  58)    -60.0444         0.011000   
    297. D(H  62,C   2,C   1,C  56)    -56.2096         0.010999   
    298. D(H  62,C   2,C   1,C   3)     56.1674         0.010999   
    299. D(H  61,C   2,C   1,C   0)    -60.0909         0.010999   
    300. D(H  60,C   2,C   1,C   3)    -63.7579         0.010999   
    301. D(H  61,C   2,C   1,C   3)    176.0947         0.010999   
    302. D(H  61,C   2,C   1,C  56)     63.7177         0.010999   
    303. D(H  62,C   2,C   1,C   0)    179.9818         0.010999   
    304. D(H  60,C   2,C   1,C  56)   -176.1349         0.010999   
    305. D(H  60,C   2,C   1,C   0)     60.0565         0.010999   
    306. D(C   4,C   3,C   1,C   0)    -61.8178         0.011677   
    307. D(C  29,C   3,C   1,C  56)     -0.0446         0.011677   
    308. D(C  29,C   3,C   1,C   2)   -118.3028         0.011677   
    309. D(C   4,C   3,C   1,C  56)    179.8839         0.011677   
    310. D(C  29,C   3,C   1,C   0)    118.2537         0.011677   
    311. D(C   4,C   3,C   1,C   2)     61.6257         0.011677   
    312. D(H  63,C   4,C   3,C  29)   -179.9935         0.034892   
    313. D(H  63,C   4,C   3,C   1)      0.0852         0.034892   
    314. D(C   5,C   4,C   3,C  29)      0.0200         0.034892   
    315. D(C   5,C   4,C   3,C   1)   -179.9014         0.034892   
    316. D(C  27,C   5,C   4,C   3)     -0.0827         0.020755   
    317. D(C   6,C   5,C   4,C   3)    179.9026         0.020755   
    318. D(C   6,C   5,C   4,H  63)     -0.0841         0.020755   
    319. D(C  27,C   5,C   4,H  63)    179.9306         0.020755   
    320. D(C   7,C   6,C   5,C   4)     -0.2372         0.023284   
    321. D(H  64,C   6,C   5,C  27)     -0.1929         0.023284   
    322. D(H  64,C   6,C   5,C   4)    179.8220         0.023284   
    323. D(C   7,C   6,C   5,C  27)    179.7480         0.023284   
    324. D(H  65,C   7,C   6,H  64)    179.8742         0.030029   
    325. D(H  65,C   7,C   6,C   5)     -0.0651         0.030029   
    326. D(C   8,C   7,C   6,H  64)     -0.1274         0.030029   
    327. D(C   8,C   7,C   6,C   5)    179.9333         0.030029   
    328. D(C  26,C   8,C   7,H  65)      0.4154         0.021446   
    329. D(C  26,C   8,C   7,C   6)   -179.5830         0.021446   
    330. D(C   9,C   8,C   7,H  65)   -179.5867         0.021446   
    331. D(C   9,C   8,C   7,C   6)      0.4149         0.021446   
    332. D(H  66,C   9,C   8,C  26)   -179.1269         0.022923   
    333. D(H  66,C   9,C   8,C   7)      0.8751         0.022923   
    334. D(C  10,C   9,C   8,C  26)      0.1510         0.022923   
    335. D(C  10,C   9,C   8,C   7)   -179.8470         0.022923   
    336. D(H  67,C  10,C   9,H  66)      0.8235         0.031125   
    337. D(H  67,C  10,C   9,C   8)   -178.4605         0.031125   
    338. D(C  11,C  10,C   9,H  66)    179.1194         0.031125   
    339. D(C  11,C  10,C   9,C   8)     -0.1646         0.031125   
    340. D(C  25,C  11,C  10,H  67)    178.3414         0.025319   
    341. D(N  12,C  11,C  10,H  67)     -1.6286         0.025319   
    342. D(C  25,C  11,C  10,C   9)      0.0277         0.025319   
    343. D(N  12,C  11,C  10,C   9)   -179.9423         0.025319   
    344. D(C  24,N  12,C  11,C  25)    131.4214         0.023814   
    345. D(C  13,N  12,C  11,C  25)    -48.4666         0.023814   
    346. D(C  13,N  12,C  11,C  10)    131.5030         0.023814   
    347. D(C  24,N  12,C  11,C  10)    -48.6090         0.023814   
    348. D(C  18,C  13,N  12,C  11)    179.9910         0.026738   
    349. D(C  14,C  13,N  12,C  11)     -3.1637         0.026738   
    350. D(C  14,C  13,N  12,C  24)    176.9319         0.026738   
    351. D(C  18,C  13,N  12,C  24)      0.0866         0.026738   
    352. D(H  68,C  14,C  13,C  18)    177.2647         0.027471   
    353. D(H  68,C  14,C  13,N  12)      0.7375         0.027471   
    354. D(C  15,C  14,C  13,C  18)     -1.8726         0.027471   
    355. D(C  15,C  14,C  13,N  12)   -178.3998         0.027471   
    356. D(H  69,C  15,C  14,H  68)      1.0638         0.028807   
    357. D(H  69,C  15,C  14,C  13)   -179.7953         0.028807   
    358. D(C  16,C  15,C  14,H  68)   -178.6363         0.028807   
    359. D(C  16,C  15,C  14,C  13)      0.5046         0.028807   
    360. D(H  70,C  16,C  15,H  69)      0.4869         0.026423   
    361. D(H  70,C  16,C  15,C  14)   -179.8132         0.026423   
    362. D(C  17,C  16,C  15,H  69)   -178.8100         0.026423   
    363. D(C  17,C  16,C  15,C  14)      0.8899         0.026423   
    364. D(H  71,C  17,C  16,H  70)     -0.5186         0.028951   
    365. D(H  71,C  17,C  16,C  15)    178.7746         0.028951   
    366. D(C  18,C  17,C  16,H  70)    179.8210         0.028951   
    367. D(C  18,C  17,C  16,C  15)     -0.8858         0.028951   
    368. D(C  19,C  18,C  17,H  71)     -1.0728         0.027500   
    369. D(C  19,C  18,C  17,C  16)    178.5895         0.027500   
    370. D(C  13,C  18,C  17,H  71)    179.8633         0.027500   
    371. D(C  13,C  18,C  17,C  16)     -0.4744         0.027500   
    372. D(C  19,C  18,C  13,C  14)   -177.3978         0.022408   
    373. D(C  19,C  18,C  13,N  12)     -0.2346         0.022408   
    374. D(C  17,C  18,C  13,C  14)      1.8932         0.022408   
    375. D(C  17,C  18,C  13,N  12)    179.0565         0.022408   
    376. D(C  24,C  19,C  18,C  17)   -178.8675         0.018886   
    377. D(C  24,C  19,C  18,C  13)      0.2877         0.018886   
    378. D(C  20,C  19,C  18,C  17)      1.9754         0.018886   
    379. D(C  20,C  19,C  18,C  13)   -178.8693         0.018886   
    380. D(H  72,C  20,C  19,C  24)    179.8748         0.027500   
    381. D(H  72,C  20,C  19,C  18)     -1.0593         0.027500   
    382. D(C  21,C  20,C  19,C  24)     -0.4622         0.027500   
    383. D(C  21,C  20,C  19,C  18)    178.6038         0.027500   
    384. D(H  73,C  21,C  20,H  72)     -0.5198         0.028952   
    385. D(H  73,C  21,C  20,C  19)    179.8190         0.028952   
    386. D(C  22,C  21,C  20,H  72)    178.7785         0.028952   
    387. D(C  22,C  21,C  20,C  19)     -0.8827         0.028952   
    388. D(H  74,C  22,C  21,H  73)      0.4785         0.026424   
    389. D(H  74,C  22,C  21,C  20)   -178.8235         0.026424   
    390. D(C  23,C  22,C  21,H  73)   -179.8194         0.026424   
    391. D(C  23,C  22,C  21,C  20)      0.8786         0.026424   
    392. D(H  75,C  23,C  22,H  74)      1.0645         0.028804   
    393. D(H  75,C  23,C  22,C  21)   -178.6378         0.028804   
    394. D(C  24,C  23,C  22,H  74)   -179.7897         0.028804   
    395. D(C  24,C  23,C  22,C  21)      0.5080         0.028804   
    396. D(C  19,C  24,C  23,H  75)    177.2818         0.027472   
    397. D(N  12,C  24,C  23,H  75)      0.7391         0.027472   
    398. D(N  12,C  24,C  23,C  22)   -178.4030         0.027472   
    399. D(C  23,C  24,C  19,C  20)      1.8729         0.022405   
    400. D(C  23,C  24,C  19,C  18)   -177.4196         0.022405   
    401. D(N  12,C  24,C  19,C  20)    179.0491         0.022405   
    402. D(N  12,C  24,C  19,C  18)     -0.2434         0.022405   
    403. D(C  23,C  24,N  12,C  13)    176.9605         0.026730   
    404. D(C  23,C  24,N  12,C  11)     -2.9439         0.026730   
    405. D(C  19,C  24,C  23,C  22)     -1.8603         0.027472   
    406. D(C  19,C  24,N  12,C  13)      0.1010         0.026730   
    407. D(C  19,C  24,N  12,C  11)   -179.8033         0.026730   
    408. D(H  76,C  25,C  11,N  12)     -1.5859         0.025300   
    409. D(H  76,C  25,C  11,C  10)    178.4440         0.025300   
    410. D(C  26,C  25,C  11,N  12)   -179.9123         0.025300   
    411. D(C  26,C  25,C  11,C  10)      0.1176         0.025300   
    412. D(H  77,C  26,C   8,C   7)      0.6727         0.022734   
    413. D(C  25,C  26,C   8,C   9)     -0.0038         0.022734   
    414. D(C  25,C  26,C   8,C   7)    179.9943         0.022734   
    415. D(H  77,C  26,C  25,H  76)      0.8799         0.031284   
    416. D(H  77,C  26,C  25,C  11)    179.1877         0.031284   
    417. D(C   8,C  26,C  25,H  76)   -178.4370         0.031284   
    418. D(C   8,C  26,C  25,C  11)     -0.1292         0.031284   
    419. D(H  77,C  26,C   8,C   9)   -179.3253         0.022734   
    420. D(H  78,C  27,C   5,C   6)      0.0530         0.020694   
    421. D(H  78,C  27,C   5,C   4)   -179.9610         0.020694   
    422. D(C  28,C  27,C   5,C   6)   -179.9108         0.020694   
    423. D(C  28,C  27,C   5,C   4)      0.0752         0.020694   
    424. D(H  79,C  28,C  27,H  78)      0.0116         0.033414   
    425. D(H  79,C  28,C  27,C   5)    179.9746         0.033414   
    426. D(C  29,C  28,C  27,H  78)   -179.9657         0.033414   
    427. D(C  29,C  28,C  27,C   5)     -0.0026         0.033414   
    428. D(C  30,C  29,C  28,H  79)     -0.1038         0.023405   
    429. D(C  30,C  29,C  28,C  27)    179.8737         0.023405   
    430. D(C   3,C  29,C  28,H  79)    179.9601         0.023405   
    431. D(C   3,C  29,C  28,C  27)     -0.0625         0.023405   
    432. D(C  30,C  29,C   3,C   4)   -179.8950         0.020441   
    433. D(C  30,C  29,C   3,C   1)      0.0397         0.020441   
    434. D(C  28,C  29,C   3,C   4)      0.0544         0.020441   
    435. D(C  28,C  29,C   3,C   1)    179.9891         0.020441   
    436. D(C  56,C  30,C  29,C  28)   -179.9572         0.023369   
    437. D(C  56,C  30,C  29,C   3)     -0.0162         0.023369   
    438. D(C  31,C  30,C  29,C  28)     -0.0380         0.023369   
    439. D(C  31,C  30,C  29,C   3)    179.9031         0.023369   
    440. D(H  80,C  31,C  30,C  56)   -179.9694         0.023402   
    441. D(H  80,C  31,C  30,C  29)      0.1180         0.023402   
    442. D(C  32,C  31,C  30,C  56)      0.0626         0.023402   
    443. D(C  32,C  31,C  30,C  29)   -179.8500         0.023402   
    444. D(H  81,C  32,C  31,H  80)     -0.0097         0.033417   
    445. D(H  81,C  32,C  31,C  30)    179.9580         0.033417   
    446. D(C  33,C  32,C  31,H  80)    179.9906         0.033417   
    447. D(C  33,C  32,C  31,C  30)     -0.0417         0.033417   
    448. D(C  55,C  33,C  32,H  81)    179.9702         0.020691   
    449. D(C  55,C  33,C  32,C  31)     -0.0301         0.020691   
    450. D(C  34,C  33,C  32,H  81)     -0.1006         0.020691   
    451. D(C  34,C  33,C  32,C  31)    179.8991         0.020691   
    452. D(H  82,C  34,C  33,C  55)    179.8248         0.023291   
    453. D(H  82,C  34,C  33,C  32)     -0.0999         0.023291   
    454. D(C  35,C  34,C  33,C  55)     -0.1914         0.023291   
    455. D(C  35,C  34,C  33,C  32)    179.8839         0.023291   
    456. D(H  83,C  35,C  34,H  82)    179.7910         0.030013   
    457. D(H  83,C  35,C  34,C  33)     -0.1923         0.030013   
    458. D(C  36,C  35,C  34,H  82)     -0.1393         0.030013   
    459. D(C  36,C  35,C  34,C  33)    179.8774         0.030013   
    460. D(C  54,C  36,C  35,H  83)    179.1932         0.021451   
    461. D(C  54,C  36,C  35,C  34)     -0.8744         0.021451   
    462. D(C  37,C  36,C  35,H  83)     -0.7292         0.021451   
    463. D(C  37,C  36,C  35,C  34)    179.2033         0.021451   
    464. D(H  84,C  37,C  36,C  54)    179.3056         0.022731   
    465. D(H  84,C  37,C  36,C  35)     -0.7666         0.022731   
    466. D(C  38,C  37,C  36,C  54)     -0.0006         0.022731   
    467. D(C  38,C  37,C  36,C  35)    179.9272         0.022731   
    468. D(H  85,C  38,C  37,H  84)     -0.8807         0.031281   
    469. D(H  85,C  38,C  37,C  36)    178.4207         0.031281   
    470. D(C  39,C  38,C  37,H  84)   -179.2080         0.031281   
    471. D(C  39,C  38,C  37,C  36)      0.0934         0.031281   
    472. D(C  53,C  39,C  38,H  85)   -178.4201         0.025298   
    473. D(C  53,C  39,C  38,C  37)     -0.0744         0.025298   
    474. D(N  40,C  39,C  38,H  85)      1.6410         0.025298   
    475. D(N  40,C  39,C  38,C  37)    179.9867         0.025298   
    476. D(C  52,N  40,C  39,C  53)     48.4867         0.023812   
    477. D(C  52,N  40,C  39,C  38)   -131.5753         0.023812   
    478. D(C  41,N  40,C  39,C  53)   -131.5130         0.023812   
    479. D(C  41,N  40,C  39,C  38)     48.4250         0.023812   
    480. D(C  46,C  41,N  40,C  52)     -0.0743         0.026731   
    481. D(C  46,C  41,N  40,C  39)    179.9254         0.026731   
    482. D(C  42,C  41,N  40,C  52)   -176.9102         0.026731   
    483. D(C  42,C  41,N  40,C  39)      3.0895         0.026731   
    484. D(H  86,C  42,C  41,C  46)   -177.2485         0.027470   
    485. D(H  86,C  42,C  41,N  40)     -0.7316         0.027470   
    486. D(C  43,C  42,C  41,C  46)      1.8817         0.027470   
    487. D(C  43,C  42,C  41,N  40)    178.3986         0.027470   
    488. D(H  87,C  43,C  42,H  86)     -1.0691         0.028806   
    489. D(H  87,C  43,C  42,C  41)    179.7971         0.028806   
    490. D(C  44,C  43,C  42,H  86)    178.6289         0.028806   
    491. D(C  44,C  43,C  42,C  41)     -0.5049         0.028806   
    492. D(H  88,C  44,C  43,H  87)     -0.4928         0.026424   
    493. D(H  88,C  44,C  43,C  42)    179.8094         0.026424   
    494. D(C  45,C  44,C  43,H  87)    178.8016         0.026424   
    495. D(C  45,C  44,C  43,C  42)     -0.8962         0.026424   
    496. D(H  89,C  45,C  44,H  88)      0.5200         0.028954   
    497. D(H  89,C  45,C  44,C  43)   -178.7707         0.028954   
    498. D(C  46,C  45,C  44,H  88)   -179.8195         0.028954   
    499. D(C  46,C  45,C  44,C  43)      0.8898         0.028954   
    500. D(C  47,C  46,C  45,H  89)      1.0912         0.027498   
    501. D(C  47,C  46,C  45,C  44)   -178.5711         0.027498   
    502. D(C  41,C  46,C  45,H  89)   -179.8585         0.027498   
    503. D(C  41,C  46,C  45,C  44)      0.4792         0.027498   
    504. D(C  47,C  46,C  41,C  42)    177.3760         0.022408   
    505. D(C  47,C  46,C  41,N  40)      0.2208         0.022408   
    506. D(C  45,C  46,C  41,C  42)     -1.9047         0.022408   
    507. D(C  45,C  46,C  41,N  40)   -179.0599         0.022408   
    508. D(C  52,C  47,C  46,C  45)    178.8651         0.018889   
    509. D(C  52,C  47,C  46,C  41)     -0.2779         0.018889   
    510. D(C  48,C  47,C  46,C  45)     -1.9532         0.018889   
    511. D(C  48,C  47,C  46,C  41)    178.9039         0.018889   
    512. D(H  90,C  48,C  47,C  52)   -179.8653         0.027497   
    513. D(H  90,C  48,C  47,C  46)      1.0414         0.027497   
    514. D(C  49,C  48,C  47,C  52)      0.4618         0.027497   
    515. D(C  49,C  48,C  47,C  46)   -178.6314         0.027497   
    516. D(H  91,C  49,C  48,H  90)      0.5238         0.028955   
    517. D(H  91,C  49,C  48,C  47)   -179.8051         0.028955   
    518. D(C  50,C  49,C  48,H  90)   -178.7764         0.028955   
    519. D(C  50,C  49,C  48,C  47)      0.8947         0.028955   
    520. D(H  92,C  50,C  49,H  91)     -0.4846         0.026423   
    521. D(H  92,C  50,C  49,C  48)    178.8193         0.026423   
    522. D(C  51,C  50,C  49,H  91)    179.8095         0.026423   
    523. D(C  51,C  50,C  49,C  48)     -0.8866         0.026423   
    524. D(H  93,C  51,C  50,H  92)     -1.0736         0.028803   
    525. D(H  93,C  51,C  50,C  49)    178.6325         0.028803   
    526. D(C  52,C  51,C  50,H  92)    179.7780         0.028803   
    527. D(C  52,C  51,C  50,C  49)     -0.5160         0.028803   
    528. D(C  47,C  52,C  51,H  93)   -177.2648         0.027471   
    529. D(N  40,C  52,C  51,H  93)     -0.7130         0.027471   
    530. D(N  40,C  52,C  51,C  50)    178.4317         0.027471   
    531. D(C  51,C  52,C  47,C  48)     -1.8886         0.022406   
    532. D(C  51,C  52,C  47,C  46)    177.4245         0.022406   
    533. D(N  40,C  52,C  47,C  48)   -179.0725         0.022406   
    534. D(N  40,C  52,C  47,C  46)      0.2407         0.022406   
    535. D(C  51,C  52,N  40,C  41)   -176.9745         0.026728   
    536. D(C  51,C  52,N  40,C  39)      3.0258         0.026728   
    537. D(C  47,C  52,C  51,C  50)      1.8799         0.027471   
    538. D(C  47,C  52,N  40,C  41)     -0.1068         0.026728   
    539. D(C  47,C  52,N  40,C  39)    179.8934         0.026728   
    540. D(H  94,C  53,C  39,C  38)   -178.3291         0.025318   
    541. D(C  54,C  53,C  39,N  40)    179.9009         0.025318   
    542. D(C  54,C  53,C  39,C  38)     -0.0381         0.025318   
    543. D(H  94,C  53,C  39,N  40)      1.6098         0.025318   
    544. D(H  95,C  54,C  53,H  94)     -0.8092         0.031131   
    545. D(H  95,C  54,C  53,C  39)   -179.0823         0.031131   
    546. D(C  36,C  54,C  53,H  94)    178.4071         0.031131   
    547. D(C  36,C  54,C  53,C  39)      0.1339         0.031131   
    548. D(H  95,C  54,C  36,C  37)    179.0962         0.022919   
    549. D(H  95,C  54,C  36,C  35)     -0.8277         0.022919   
    550. D(C  53,C  54,C  36,C  37)     -0.1133         0.022919   
    551. D(C  53,C  54,C  36,C  35)    179.9628         0.022919   
    552. D(H  96,C  55,C  33,C  34)      0.0701         0.020755   
    553. D(H  96,C  55,C  33,C  32)    179.9956         0.020755   
    554. D(C  56,C  55,C  33,C  34)   -179.8431         0.020755   
    555. D(C  56,C  55,C  33,C  32)      0.0824         0.020755   
    556. D(C  30,C  56,C  55,H  96)   -179.9754         0.034888   
    557. D(C  30,C  56,C  55,C  33)     -0.0629         0.034888   
    558. D(C   1,C  56,C  55,H  96)     -0.0552         0.034888   
    559. D(C   1,C  56,C  55,C  33)    179.8573         0.034888   
    560. D(C  55,C  56,C  30,C  31)     -0.0105         0.020445   
    561. D(C  55,C  56,C  30,C  29)    179.9203         0.020445   
    562. D(C   1,C  56,C  30,C  31)   -179.9442         0.020445   
    563. D(C   1,C  56,C  30,C  29)     -0.0135         0.020445   
    564. D(C  55,C  56,C   1,C   3)   -179.8927         0.011678   
    565. D(C  55,C  56,C   1,C   2)    -61.6375         0.011678   
    566. D(C  55,C  56,C   1,C   0)     61.8041         0.011678   
    567. D(C  30,C  56,C   1,C   3)      0.0348         0.011678   
    568. D(C  30,C  56,C   1,C   2)    118.2900         0.011678   
    569. D(C  30,C  56,C   1,C   0)   -118.2684         0.011678   
    -----------------------------------------------------------------

Number of atoms                         .... 97
Number of degrees of freedom            .... 569

         *************************************************************
         *                GEOMETRY OPTIMIZATION CYCLE   1            *
         *************************************************************
---------------------------------
CARTESIAN COORDINATES (ANGSTROEM)
---------------------------------
  C     -0.001967    0.147751   -1.506346
  C     -0.000504   -0.063784    0.010855
  C      0.000786    1.283525    0.739848
  C     -1.173837   -0.916536    0.444037
  C     -2.501151   -0.660105    0.318377
  C     -3.458834   -1.599481    0.797021
  C     -4.852031   -1.407442    0.706410
  C     -5.499348   -0.319675    0.165275
  C     -6.904084   -0.132271    0.075537
  C     -7.856190   -1.059554    0.550363
  C     -9.202959   -0.824997    0.432935
  C     -9.672948    0.350052   -0.162053
  N    -11.044141    0.586351   -0.278981
  C    -11.696445    1.752534    0.071472
  C    -11.192546    2.906007    0.656315
  C    -12.079351    3.928301    0.935865
  C    -13.438279    3.810418    0.653499
  C    -13.950388    2.654044    0.098122
  C    -13.078998    1.613574   -0.192015
  C    -13.260377    0.295254   -0.733800
  C    -14.367791   -0.402476   -1.195199
  C    -14.186162   -1.679121   -1.690253
  C    -12.917735   -2.252196   -1.744878
  C    -11.800280   -1.576990   -1.292010
  C    -11.980155   -0.304899   -0.766777
  C     -8.748156    1.285205   -0.637622
  C     -7.402631    1.046640   -0.521527
  C     -2.970119   -2.794864    1.398693
  C     -1.639079   -3.058906    1.527972
  C     -0.704624   -2.119007    1.050926
  C      0.704187   -2.119468    1.049574
  C      1.638921   -3.059700    1.525468
  C      2.969874   -2.796408    1.393907
  C      3.458259   -1.601924    0.790135
  C      4.851390   -1.410626    0.697518
  C      5.498725   -0.327035    0.147925
  C      6.903474   -0.139158    0.059833
  C      7.402661    1.030867   -0.553982
  C      8.748288    1.269965   -0.667911
  C      9.672583    0.344660   -0.172504
  N     11.043911    0.582079   -0.285637
  C     11.691712    1.755422    0.049040
  C     11.181890    2.917875    0.610504
  C     12.064986    3.946503    0.878330
  C     13.425996    3.826340    0.607184
  C     13.943872    2.661479    0.075418
  C     13.076288    1.614508   -0.202530
  C     13.263781    0.287258   -0.719828
  C     14.375735   -0.416485   -1.160764
  C     14.199950   -1.702095   -1.634222
  C     12.932930   -2.278375   -1.687902
  C     11.811042   -1.597284   -1.255252
  C     11.984894   -0.315802   -0.751236
  C      9.201949   -0.821551    0.439141
  C      7.855105   -1.056949    0.553735
  C      2.500304   -0.662199    0.312720
  C      1.173055   -0.917509    0.441462
  H      0.881845    0.703061   -1.811805
  H     -0.885443    0.704600   -1.809928
  H     -0.003339   -0.811685   -2.019423
  H     -0.882755    1.858886    0.473219
  H      0.884533    1.857949    0.471911
  H      0.001497    1.127839    1.816674
  H     -2.838621    0.254763   -0.143536
  H     -5.454868   -2.209855    1.110878
  H     -4.904031    0.487427   -0.239171
  H     -7.525818   -1.968857    1.027100
  H     -9.914505   -1.536686    0.825494
  H    -10.145056    2.999445    0.899278
  H    -11.710762    4.837272    1.387922
  H    -14.098628    4.633051    0.884193
  H    -15.006455    2.554946   -0.102712
  H    -15.347911    0.049408   -1.170788
  H    -15.034974   -2.240373   -2.051527
  H    -12.803910   -3.244900   -2.154763
  H    -10.819222   -2.021963   -1.359143
  H     -9.104720    2.182949   -1.120872
  H     -6.699513    1.772183   -0.905404
  H     -3.695767   -3.509613    1.762140
  H     -1.297088   -3.973844    1.989043
  H      1.297215   -3.974202    1.987588
  H      3.695738   -3.511331    1.756551
  H      5.454316   -2.210570    1.106661
  H      4.903511    0.475173   -0.266234
  H      6.700021    1.748710   -0.952890
  H      9.105393    2.160311   -1.164248
  H     10.132661    3.013556    0.844914
  H     11.691749    4.862421    1.312183
  H     14.083313    4.654089    0.828026
  H     15.001447    2.560869   -0.116527
  H     15.354859    0.037592   -1.137261
  H     15.052355   -2.268176   -1.979126
  H     12.823797   -3.278424   -2.080850
  H     10.831283   -2.045200   -1.321726
  H      9.912883   -1.525170    0.847028
  H      7.524226   -1.958791    1.044064
  H      2.837540    0.252538   -0.149635

----------------------------
CARTESIAN COORDINATES (A.U.)
----------------------------
  NO LB      ZA    FRAG     MASS         X           Y           Z
   0 C     6.0000    0    12.011   -0.003718    0.279210   -2.846582
   1 C     6.0000    0    12.011   -0.000953   -0.120534    0.020512
   2 C     6.0000    0    12.011    0.001485    2.425510    1.398110
   3 C     6.0000    0    12.011   -2.218231   -1.732003    0.839108
   4 C     6.0000    0    12.011   -4.726490   -1.247417    0.601645
   5 C     6.0000    0    12.011   -6.536249   -3.022582    1.506152
   6 C     6.0000    0    12.011   -9.169009   -2.659680    1.334921
   7 C     6.0000    0    12.011  -10.392262   -0.604099    0.312324
   8 C     6.0000    0    12.011  -13.046827   -0.249957    0.142745
   9 C     6.0000    0    12.011  -14.846048   -2.002267    1.040036
  10 C     6.0000    0    12.011  -17.391072   -1.559018    0.818128
  11 C     6.0000    0    12.011  -18.279223    0.661503   -0.306236
  12 N     7.0000    0    14.007  -20.870402    1.108043   -0.527197
  13 C     6.0000    0    12.011  -22.103077    3.311809    0.135063
  14 C     6.0000    0    12.011  -21.150846    5.491558    1.240255
  15 C     6.0000    0    12.011  -22.826666    7.423414    1.768528
  16 C     6.0000    0    12.011  -25.394666    7.200647    1.234935
  17 C     6.0000    0    12.011  -26.362413    5.015416    0.185424
  18 C     6.0000    0    12.011  -24.715725    3.049213   -0.362856
  19 C     6.0000    0    12.011  -25.058481    0.557949   -1.386680
  20 C     6.0000    0    12.011  -27.151189   -0.760569   -2.258600
  21 C     6.0000    0    12.011  -26.807962   -3.173080   -3.194116
  22 C     6.0000    0    12.011  -24.410981   -4.256033   -3.297341
  23 C     6.0000    0    12.011  -22.299297   -2.980080   -2.441545
  24 C     6.0000    0    12.011  -22.639213   -0.576176   -1.448999
  25 C     6.0000    0    12.011  -16.531619    2.428685   -1.204931
  26 C     6.0000    0    12.011  -13.988945    1.977864   -0.985544
  27 C     6.0000    0    12.011   -5.612712   -5.281528    2.643148
  28 C     6.0000    0    12.011   -3.097411   -5.780494    2.887449
  29 C     6.0000    0    12.011   -1.331547   -4.004344    1.985962
  30 C     6.0000    0    12.011    1.330721   -4.005215    1.983406
  31 C     6.0000    0    12.011    3.097111   -5.781994    2.882717
  32 C     6.0000    0    12.011    5.612249   -5.284445    2.634103
  33 C     6.0000    0    12.011    6.535162   -3.027197    1.493138
  34 C     6.0000    0    12.011    9.167799   -2.665697    1.318118
  35 C     6.0000    0    12.011   10.391085   -0.618007    0.279537
  36 C     6.0000    0    12.011   13.045675   -0.262970    0.113069
  37 C     6.0000    0    12.011   13.989002    1.948057   -1.046874
  38 C     6.0000    0    12.011   16.531869    2.399886   -1.262168
  39 C     6.0000    0    12.011   18.278532    0.651314   -0.325986
  40 N     7.0000    0    14.007   20.869966    1.099970   -0.539776
  41 C     6.0000    0    12.011   22.094134    3.317267    0.092672
  42 C     6.0000    0    12.011   21.130709    5.513985    1.153686
  43 C     6.0000    0    12.011   22.799520    7.457810    1.659803
  44 C     6.0000    0    12.011   25.371455    7.230735    1.147412
  45 C     6.0000    0    12.011   26.350098    5.029466    0.142519
  46 C     6.0000    0    12.011   24.710603    3.050977   -0.382726
  47 C     6.0000    0    12.011   25.064914    0.542840   -1.360279
  48 C     6.0000    0    12.011   27.166201   -0.787042   -2.193526
  49 C     6.0000    0    12.011   26.834017   -3.216494   -3.088232
  50 C     6.0000    0    12.011   24.439695   -4.305504   -3.189672
  51 C     6.0000    0    12.011   22.319634   -3.018429   -2.372082
  52 C     6.0000    0    12.011   22.648168   -0.596780   -1.419630
  53 C     6.0000    0    12.011   17.389163   -1.552506    0.829856
  54 C     6.0000    0    12.011   14.843998   -1.997344    1.046408
  55 C     6.0000    0    12.011    4.724891   -1.251375    0.590954
  56 C     6.0000    0    12.011    2.216753   -1.733840    0.834242
  57 H     1.0000    0     1.008    1.666445    1.328593   -3.423816
  58 H     1.0000    0     1.008   -1.673244    1.331501   -3.420267
  59 H     1.0000    0     1.008   -0.006310   -1.533862   -3.816157
  60 H     1.0000    0     1.008   -1.668166    3.512786    0.894254
  61 H     1.0000    0     1.008    1.671524    3.511015    0.891783
  62 H     1.0000    0     1.008    0.002830    2.131308    3.433015
  63 H     1.0000    0     1.008   -5.364216    0.481432   -0.271244
  64 H     1.0000    0     1.008  -10.308207   -4.176021    2.099255
  65 H     1.0000    0     1.008   -9.267276    0.921103   -0.451968
  66 H     1.0000    0     1.008  -14.221735   -3.720601    1.940939
  67 H     1.0000    0     1.008  -18.735699   -2.903916    1.559958
  68 H     1.0000    0     1.008  -19.171377    5.668130    1.699389
  69 H     1.0000    0     1.008  -22.130134    9.141120    2.622792
  70 H     1.0000    0     1.008  -26.642546    8.755197    1.670883
  71 H     1.0000    0     1.008  -28.358090    4.828149   -0.194097
  72 H     1.0000    0     1.008  -29.003349    0.093367   -2.212469
  73 H     1.0000    0     1.008  -28.411984   -4.233691   -3.876825
  74 H     1.0000    0     1.008  -24.195884   -6.131973   -4.071912
  75 H     1.0000    0     1.008  -20.445366   -3.820957   -2.568408
  76 H     1.0000    0     1.008  -17.205427    4.125176   -2.118141
  77 H     1.0000    0     1.008  -12.660246    3.348941   -1.710966
  78 H     1.0000    0     1.008   -6.983987   -6.632208    3.329962
  79 H     1.0000    0     1.008   -2.451141   -7.509477    3.758746
  80 H     1.0000    0     1.008    2.451380   -7.510153    3.755997
  81 H     1.0000    0     1.008    6.983932   -6.635454    3.319400
  82 H     1.0000    0     1.008   10.307164   -4.177371    2.091286
  83 H     1.0000    0     1.008    9.266292    0.897946   -0.503110
  84 H     1.0000    0     1.008   12.661205    3.304583   -1.800701
  85 H     1.0000    0     1.008   17.206700    4.082396   -2.200110
  86 H     1.0000    0     1.008   19.147955    5.694795    1.596656
  87 H     1.0000    0     1.008   22.094204    9.188643    2.479666
  88 H     1.0000    0     1.008   26.613604    8.794953    1.564743
  89 H     1.0000    0     1.008   28.348626    4.839341   -0.220203
  90 H     1.0000    0     1.008   29.016479    0.071039   -2.149113
  91 H     1.0000    0     1.008   28.444829   -4.286231   -3.740007
  92 H     1.0000    0     1.008   24.233464   -6.195323   -3.932236
  93 H     1.0000    0     1.008   20.468159   -3.864868   -2.497700
  94 H     1.0000    0     1.008   18.732634   -2.882153    1.600651
  95 H     1.0000    0     1.008   14.218726   -3.701578    1.972995
  96 H     1.0000    0     1.008    5.362173    0.477228   -0.282769



           ************************************************************
           *        Program running with 40 parallel MPI-processes    *
           *              working on a common directory               *
           ************************************************************
------------------------------------------------------------------------------
                   ___                                                        
                  /   \      - P O W E R E D   B Y -                         
                 /     \                                                     
                 |  |  |   _    _      __       _____    __    __             
                 |  |  |  | |  | |    /  \     |  _  \  |  |  /  |          
                  \  \/   | |  | |   /    \    | | | |  |  | /  /          
                 / \  \   | |__| |  /  /\  \   | |_| |  |  |/  /          
                |  |  |   |  __  | /  /__\  \  |    /   |      \           
                |  |  |   | |  | | |   __   |  |    \   |  |\   \          
                \     /   | |  | | |  |  |  |  | |\  \  |  | \   \       
                 \___/    |_|  |_| |__|  |__|  |_| \__\ |__|  \__/        
                                                                              
                      - O R C A' S   B I G   F R I E N D -                    
                                      &                                       
                       - I N T E G R A L  F E E D E R -                       
                                                                              
 v1 FN, 2020, v2 2021                                                         
------------------------------------------------------------------------------


Reading SHARK input file /dev/shm/slurm.malcolms.9869179/9869179/T2/T2_OPT.SHARKINP.tmp ... ok
----------------------
SHARK INTEGRAL PACKAGE
----------------------

Number of atoms                             ...     97
Number of basis functions                   ...    998
Number of shells                            ...    462
Maximum angular momentum                    ...      2
Integral batch strategy                     ... SHARK/LIBINT Hybrid
RI-J (if used) integral strategy            ... SPLIT-RIJ (Revised 2003 algorithm where possible)
Printlevel                                  ...      1
Contraction scheme used                     ... SEGMENTED contraction
Coulomb Range Separation                    ... NOT USED
Exchange Range Separation                   ... NOT USED
Finite Nucleus Model                        ... NOT USED
Auxiliary Coulomb fitting basis             ... AVAILABLE
   # of basis functions in Aux-J            ...   3233
   # of shells in Aux-J                     ...   1055
   Maximum angular momentum in Aux-J        ...      4
Auxiliary J/K fitting basis                 ... NOT available
Auxiliary Correlation fitting basis         ... NOT available
Auxiliary 'external' fitting basis          ... NOT available
Integral threshold                          ...     2.500000e-11
Primitive cut-off                           ...     2.500000e-12
Primitive pair pre-selection threshold      ...     2.500000e-12

Calculating pre-screening integrals         ... done (  0.0 sec) Dimension = 462
Organizing shell pair data                  ... done (  0.2 sec)
Shell pair information
Total number of shell pairs                 ...    106953
Shell pairs after pre-screening             ...     35754
Total number of primitive shell pairs       ...    392031
Primitive shell pairs kept                  ...     81429
          la=0 lb=0:  10957 shell pairs
          la=1 lb=0:  13337 shell pairs
          la=1 lb=1:   4178 shell pairs
          la=2 lb=0:   4237 shell pairs
          la=2 lb=1:   2624 shell pairs
          la=2 lb=2:    421 shell pairs

Calculating one electron integrals          ... done (  0.1 sec)
Calculating RI/J V-Matrix + Cholesky decomp.... done (  0.5 sec)
Calculating Nuclear repulsion               ... done (  0.0 sec) ENN=   5942.123932799639 Eh

SHARK setup successfully completed in   1.1 seconds

Maximum memory used throughout the entire GTOINT-calculation: 64.1 MB


           ************************************************************
           *        Program running with 40 parallel MPI-processes    *
           *              working on a common directory               *
           ************************************************************

Diagonalization of the overlap matrix:
Smallest eigenvalue                        ... 2.153e-04
Time for diagonalization                   ...    0.211 sec
Threshold for overlap eigenvalues          ... 1.000e-08
Number of eigenvalues below threshold      ... 0
Time for construction of square roots      ...    0.139 sec
Total time needed                          ...    0.359 sec

Time for model grid setup =    0.574 sec

Loading Hartree-Fock densities                     ... done
Calculating cut-offs                               ... done
Initializing the effective Hamiltonian             ... done
Setting up the integral package (SHARK)            ... done
Starting the Coulomb interaction                   ... done (   0.3 sec)
Reading the grid                                   ... done
Mapping shells                                     ... done
Starting the XC term evaluation                    ... done (   0.1 sec)
  promolecular density results
     # of electrons  =    383.979175635
     EX              =   -306.601516403
     EC              =    -12.937088921
     EX+EC           =   -319.538605325
Transforming the Hamiltonian                       ... done (   0.1 sec)
Diagonalizing the Hamiltonian                      ... done (   0.2 sec)
Back transforming the eigenvectors                 ... done (   0.0 sec)
Now organizing SCF variables                       ... done
-------------------
DFT GRID GENERATION
-------------------

General Integration Accuracy     IntAcc      ... 4.959
Radial Grid Type                 RadialGrid  ... OptM3 with GC (2021)
Angular Grid (max. ang.)         AngularGrid ... 6 (Lebedev-590)
Angular grid pruning method      GridPruning ... 4 (adaptive)
Weight generation scheme         WeightScheme... Becke
Basis function cutoff            BFCut       ... 1.0000e-11
Integration weight cutoff        WCut        ... 1.0000e-14
Angular grids for H and He will be reduced by one unit
Partially contracted basis set               ... off
Rotationally invariant grid construction     ... off

Total number of grid points                  ...  1142380
Total number of batches                      ...    17893
Average number of points per batch           ...       63
Average number of grid points per atom       ...    11777
Time for grid setup =   12.493 sec

--------------------
COSX GRID GENERATION
--------------------

GRIDX 1
-------
General Integration Accuracy     IntAcc      ... 4.020
Radial Grid Type                 RadialGrid  ... OptM3 with GC (2021)
Angular Grid (max. ang.)         AngularGrid ... 2 (Lebedev-110)
Angular grid pruning method      GridPruning ... 4 (adaptive)
Weight generation scheme         WeightScheme... Becke
Basis function cutoff            BFCut       ... 1.0000e-11
Integration weight cutoff        WCut        ... 1.0000e-14
Angular grids for H and He will be reduced by one unit
Partially contracted basis set               ... on
Rotationally invariant grid construction     ... off

Total number of grid points                  ...   128158
Total number of batches                      ...     2059
Average number of points per batch           ...       62
Average number of grid points per atom       ...     1321
UseSFitting                                  ... on

GRIDX 2
-------
General Integration Accuracy     IntAcc      ... 4.338
Radial Grid Type                 RadialGrid  ... OptM3 with GC (2021)
Angular Grid (max. ang.)         AngularGrid ... 3 (Lebedev-194)
Angular grid pruning method      GridPruning ... 4 (adaptive)
Weight generation scheme         WeightScheme... Becke
Basis function cutoff            BFCut       ... 1.0000e-11
Integration weight cutoff        WCut        ... 1.0000e-14
Angular grids for H and He will be reduced by one unit
Partially contracted basis set               ... on
Rotationally invariant grid construction     ... off

Total number of grid points                  ...   279765
Total number of batches                      ...     4420
Average number of points per batch           ...       63
Average number of grid points per atom       ...     2884
UseSFitting                                  ... on

GRIDX 3
-------
General Integration Accuracy     IntAcc      ... 4.871
Radial Grid Type                 RadialGrid  ... OptM3 with GC (2021)
Angular Grid (max. ang.)         AngularGrid ... 4 (Lebedev-302)
Angular grid pruning method      GridPruning ... 4 (adaptive)
Weight generation scheme         WeightScheme... Becke
Basis function cutoff            BFCut       ... 1.0000e-11
Integration weight cutoff        WCut        ... 1.0000e-14
Angular grids for H and He will be reduced by one unit
Partially contracted basis set               ... on
Rotationally invariant grid construction     ... off

Total number of grid points                  ...   519473
Total number of batches                      ...     8162
Average number of points per batch           ...       63
Average number of grid points per atom       ...     5355
UseSFitting                                  ... on

Time for X-Grid setup             =    6.126 sec

--------------
SCF ITERATIONS
--------------
ITER       Energy         Delta-E        Max-DP      RMS-DP      [F,P]     Damp
               ***  Starting incremental Fock matrix formation  ***
  0  -2224.3999494426   0.000000000000 0.08477733  0.00109123  0.1559810 0.7000
  1  -2224.7978886910  -0.397939248351 0.05111254  0.00077678  0.0854629 0.7000
                               ***Turning on DIIS***
  2  -2224.9883451196  -0.190456428609 0.08951575  0.00149641  0.0360248 0.0000
  3  -2225.2705476844  -0.282202564802 0.03455508  0.00042655  0.0430455 0.0000
  4  -2225.3297391269  -0.059191442554 0.01082539  0.00012311  0.0113527 0.0000
                      *** Initiating the SOSCF procedure ***
                           *** Shutting down DIIS ***
                      *** Re-Reading the Fockian *** 
                      *** Removing any level shift *** 
ITER      Energy       Delta-E        Grad      Rot      Max-DP    RMS-DP
  5  -2225.33262804  -0.0028889099  0.001144  0.001144  0.003404  0.000042
               *** Restarting incremental Fock matrix formation ***
  6  -2225.33295121  -0.0003231709  0.000754  0.005616  0.001555  0.000025
  7  -2225.33297585  -0.0000246399  0.000354  0.002217  0.001290  0.000012
  8  -2225.33298509  -0.0000092458  0.000205  0.000938  0.000561  0.000007
  9  -2225.33298649  -0.0000013950  0.000102  0.000533  0.000319  0.000004
 10  -2225.33298798  -0.0000014949  0.000044  0.000265  0.000159  0.000002
 11  -2225.33298810  -0.0000001204  0.000041  0.000066  0.000084  0.000001
 12  -2225.33298820  -0.0000000974  0.000017  0.000091  0.000046  0.000001
 13  -2225.33298824  -0.0000000402  0.000010  0.000017  0.000027  0.000000
 14  -2225.33298832  -0.0000000817  0.000003  0.000029  0.000023  0.000000
 15  -2225.33298823   0.0000000899  0.000003  0.000009  0.000015  0.000000
                  ***Gradient check signals convergence***
              ***Rediagonalizing the Fockian in SOSCF/NRSCF***

               *****************************************************
               *                     SUCCESS                       *
               *           SCF CONVERGED AFTER  16 CYCLES          *
               *****************************************************

Old exchange energy                            =    -78.149990870 Eh
New exchange energy                            =    -78.149967541 Eh
Exchange energy change after final integration =      0.000023330 Eh
Total energy after final integration           =  -2225.332964937 Eh
Final COS-X integration done in                =    22.134 sec
Total Energy       :        -2225.33296494 Eh          -60554.38850 eV
  Last Energy change         ...   -3.2929e-08  Tolerance :   1.0000e-08
  Last MAX-Density change    ...    6.2172e-15  Tolerance :   1.0000e-07
             **** THE GBW FILE WAS UPDATED (/dev/shm/slurm.malcolms.9869179/9869179/T2/T2_OPT.gbw) ****
             **** DENSITY /dev/shm/slurm.malcolms.9869179/9869179/T2/T2_OPT.scfp WAS UPDATED ****
             **** ENERGY FILE WAS UPDATED (/dev/shm/slurm.malcolms.9869179/9869179/T2/T2_OPT.en.tmp) ****
             **** THE GBW FILE WAS UPDATED (/dev/shm/slurm.malcolms.9869179/9869179/T2/T2_OPT.gbw) ****
             **** DENSITY /dev/shm/slurm.malcolms.9869179/9869179/T2/T2_OPT.scfp WAS UPDATED ****
----------------
ORBITAL ENERGIES
----------------

  NO   OCC          E(Eh)            E(eV) 
   0   2.0000     -14.449402      -393.1882 
   1   2.0000     -14.449367      -393.1873 
   2   2.0000     -10.289871      -280.0016 
   3   2.0000     -10.289860      -280.0013 
   4   2.0000     -10.273929      -279.5678 
   5   2.0000     -10.273911      -279.5673 
   6   2.0000     -10.273877      -279.5664 
   7   2.0000     -10.273858      -279.5659 
   8   2.0000     -10.260435      -279.2006 
   9   2.0000     -10.254597      -279.0418 
  10   2.0000     -10.254582      -279.0414 
  11   2.0000     -10.252877      -278.9950 
  12   2.0000     -10.252870      -278.9948 
  13   2.0000     -10.249239      -278.8960 
  14   2.0000     -10.249223      -278.8955 
  15   2.0000     -10.248769      -278.8832 
  16   2.0000     -10.248766      -278.8831 
  17   2.0000     -10.248663      -278.8803 
  18   2.0000     -10.248648      -278.8799 
  19   2.0000     -10.248112      -278.8653 
  20   2.0000     -10.248107      -278.8652 
  21   2.0000     -10.246723      -278.8275 
  22   2.0000     -10.246719      -278.8274 
  23   2.0000     -10.246645      -278.8254 
  24   2.0000     -10.246342      -278.8172 
  25   2.0000     -10.246141      -278.8117 
  26   2.0000     -10.246136      -278.8115 
  27   2.0000     -10.244739      -278.7735 
  28   2.0000     -10.244715      -278.7729 
  29   2.0000     -10.244069      -278.7553 
  30   2.0000     -10.243976      -278.7527 
  31   2.0000     -10.243154      -278.7304 
  32   2.0000     -10.243141      -278.7300 
  33   2.0000     -10.242773      -278.7200 
  34   2.0000     -10.242759      -278.7196 
  35   2.0000     -10.236675      -278.5541 
  36   2.0000     -10.236660      -278.5537 
  37   2.0000     -10.236570      -278.5512 
  38   2.0000     -10.236555      -278.5508 
  39   2.0000     -10.236401      -278.5466 
  40   2.0000     -10.236380      -278.5461 
  41   2.0000     -10.236360      -278.5455 
  42   2.0000     -10.236345      -278.5451 
  43   2.0000     -10.236087      -278.5381 
  44   2.0000     -10.236071      -278.5377 
  45   2.0000     -10.235883      -278.5325 
  46   2.0000     -10.235868      -278.5321 
  47   2.0000     -10.234699      -278.5003 
  48   2.0000     -10.234693      -278.5001 
  49   2.0000     -10.234682      -278.4999 
  50   2.0000     -10.234678      -278.4997 
  51   2.0000     -10.233481      -278.4672 
  52   2.0000     -10.233443      -278.4662 
  53   2.0000     -10.228768      -278.3389 
  54   2.0000     -10.228761      -278.3387 
  55   2.0000     -10.228750      -278.3384 
  56   2.0000     -10.228745      -278.3383 
  57   2.0000      -1.029967       -28.0268 
  58   2.0000      -1.029956       -28.0265 
  59   2.0000      -0.925632       -25.1877 
  60   2.0000      -0.904325       -24.6079 
  61   2.0000      -0.904157       -24.6034 
  62   2.0000      -0.884181       -24.0598 
  63   2.0000      -0.875376       -23.8202 
  64   2.0000      -0.873580       -23.7713 
  65   2.0000      -0.873563       -23.7709 
  66   2.0000      -0.873326       -23.7644 
  67   2.0000      -0.856562       -23.3082 
  68   2.0000      -0.831334       -22.6217 
  69   2.0000      -0.829980       -22.5849 
  70   2.0000      -0.816449       -22.2167 
  71   2.0000      -0.805885       -21.9293 
  72   2.0000      -0.793941       -21.6042 
  73   2.0000      -0.785486       -21.3742 
  74   2.0000      -0.785349       -21.3704 
  75   2.0000      -0.779969       -21.2240 
  76   2.0000      -0.773751       -21.0548 
  77   2.0000      -0.771920       -21.0050 
  78   2.0000      -0.771761       -21.0007 
  79   2.0000      -0.766153       -20.8481 
  80   2.0000      -0.758757       -20.6468 
  81   2.0000      -0.750403       -20.4195 
  82   2.0000      -0.737965       -20.0810 
  83   2.0000      -0.737947       -20.0806 
  84   2.0000      -0.733800       -19.9677 
  85   2.0000      -0.711998       -19.3745 
  86   2.0000      -0.711965       -19.3736 
  87   2.0000      -0.693051       -18.8589 
  88   2.0000      -0.672353       -18.2956 
[...]
   Time for K (COSX):             5.299
   Time for XC-Integration:       0.655
   Time for Sigma-Completion:     0.118
o.k.
Building the Hamiltonian                       ... o.k.
Diagonalizing the Hamiltonian                  ... o.k.
   Size of expansion space: 20
   lowest eigenvalues of A:
    E[ 0] =     0.0642006118 (change=  -0.0066735669)  1.747 eV
    E[ 1] =     0.0764936184 (change=  -0.0088640158)  2.081 eV
    E[ 2] =     0.1085304363 (change=  -0.0036748322)  2.953 eV
    E[ 3] =     0.1103058718 (change=  -0.0038183461)  3.001 eV
    E[ 4] =     0.1193691946 (change=  -0.0066229146)  3.248 eV
   Lowest Energy          :     0.064200611841
   Maximum Energy change  :     0.008864015800 (vector 1)
   Maximum residual norm  :     0.000151739113
   Repeating orthogonalization (< 0|15>=1.296559e-01)
   Repeating orthogonalization (< 1|16>=2.372287e-01)
   Repeating orthogonalization (< 2|15>=1.097040e-01)
   Repeating orthogonalization (< 3|21>=3.340038e-01)
   Repeating orthogonalization (< 4|22>=8.211153e-01)
Storing the current CI vectors                 ... o.k.

                       ****Iteration    2****

Building the sigma vectors                     ...    Time for densities:            0.183
Average shell size            =     8.290 au
Total number of shells        =       462    
Av no of R-interacting shells =       192 
Av no of P-interacting shells =       462 
Av no of primary shells       =       105 
Av no of secondary shells     =       462 
Av no of tertiary shells      =       462 
Integration Timings:
Total Time                    =     5.0 sec
Basis fcn evaluation          =     0.0 sec
Density evaluation            =     0.2 sec
Integral evaluation           =     4.5 sec
K(P) evaluation               =     0.2 sec
   Time for K (COSX):             5.275
   Time for XC-Integration:       0.774
   Time for Sigma-Completion:     0.136
o.k.
Building the Hamiltonian                       ... o.k.
Diagonalizing the Hamiltonian                  ... o.k.
   Size of expansion space: 25
   lowest eigenvalues of A:
    E[ 0] =     0.0639827251 (change=  -0.0002178868)  1.741 eV
    E[ 1] =     0.0761391916 (change=  -0.0003544267)  2.072 eV
    E[ 2] =     0.1074013200 (change=  -0.0011291163)  2.922 eV
    E[ 3] =     0.1100833114 (change=  -0.0002225604)  2.995 eV
    E[ 4] =     0.1185252984 (change=  -0.0008438963)  3.225 eV
   Lowest Energy          :     0.063982725059
   Maximum Energy change  :     0.001129116282 (vector 2)
   Maximum residual norm  :     0.000018640777
   Repeating orthogonalization (< 0|15>=1.989891e-01)
   Repeating orthogonalization (< 1|16>=2.062322e-01)
   Repeating orthogonalization (< 2|18>=1.136292e-01)
   Repeating orthogonalization (< 3|17>=1.947923e-01)
   Repeating orthogonalization (< 4|27>=7.722427e-01)
Storing the current CI vectors                 ... o.k.

                       ****Iteration    3****

Building the sigma vectors                     ...    Time for densities:            0.181
Average shell size            =     8.290 au
Total number of shells        =       462    
Av no of R-interacting shells =       192 
Av no of P-interacting shells =       462 
Av no of primary shells       =       105 
Av no of secondary shells     =       462 
Av no of tertiary shells      =       462 
Integration Timings:
Total Time                    =     4.9 sec
Basis fcn evaluation          =     0.0 sec
Density evaluation            =     0.2 sec
Integral evaluation           =     4.4 sec
K(P) evaluation               =     0.2 sec
   Time for K (COSX):             5.281
   Time for XC-Integration:       0.679
   Time for Sigma-Completion:     0.117
o.k.
Building the Hamiltonian                       ... o.k.
Diagonalizing the Hamiltonian                  ... o.k.
   Size of expansion space: 30
   lowest eigenvalues of A:
    E[ 0] =     0.0639729155 (change=  -0.0000098095)  1.741 eV
    E[ 1] =     0.0761215272 (change=  -0.0000176644)  2.071 eV
    E[ 2] =     0.1072760369 (change=  -0.0001252831)  2.919 eV
    E[ 3] =     0.1100552185 (change=  -0.0000280929)  2.995 eV
    E[ 4] =     0.1184340232 (change=  -0.0000912752)  3.223 eV
   Lowest Energy          :     0.063972915510
   Maximum Energy change  :     0.000125283075 (vector 2)
   Maximum residual norm  :     0.000002122526
   Repeating orthogonalization (< 0|24>=1.372952e-01)
   Repeating orthogonalization (< 1|21>=1.241428e-01)
   Repeating orthogonalization (< 2|22>=1.349969e-01)
   Repeating orthogonalization (< 3|28>=1.451565e-01)
   Repeating orthogonalization (< 4|32>=5.701646e-01)
Storing the current CI vectors                 ... o.k.

                       ****Iteration    4****

Building the sigma vectors                     ...    Time for densities:            0.182
Average shell size            =     8.290 au
Total number of shells        =       462    
Av no of R-interacting shells =       192 
Av no of P-interacting shells =       462 
Av no of primary shells       =       105 
Av no of secondary shells     =       462 
Av no of tertiary shells      =       462 
Integration Timings:
Total Time                    =     5.0 sec
Basis fcn evaluation          =     0.0 sec
Density evaluation            =     0.2 sec
Integral evaluation           =     4.5 sec
K(P) evaluation               =     0.2 sec
   Time for K (COSX):             5.245
   Time for XC-Integration:       0.679
   Time for Sigma-Completion:     0.117
o.k.
Building the Hamiltonian                       ... o.k.
Diagonalizing the Hamiltonian                  ... o.k.
   Size of expansion space: 35
   lowest eigenvalues of A:
    E[ 0] =     0.0639727331 (change=  -0.0000001824)  1.741 eV
    E[ 1] =     0.0761211147 (change=  -0.0000004125)  2.071 eV
    E[ 2] =     0.1072670422 (change=  -0.0000089947)  2.919 eV
    E[ 3] =     0.1100511223 (change=  -0.0000040962)  2.995 eV
    E[ 4] =     0.1184219367 (change=  -0.0000120865)  3.222 eV
   Lowest Energy          :     0.063972733072
   Maximum Energy change  :     0.000012086508 (vector 4)
   Maximum residual norm  :     0.000000406490
   Repeating orthogonalization (< 0|30>=1.361070e-01)
   Repeating orthogonalization (< 1|31>=1.583490e-01)
   Repeating orthogonalization (< 2|29>=1.411358e-01)
   Repeating orthogonalization (< 3|33>=2.953862e-01)
   Repeating orthogonalization (< 4|34>=2.821594e-01)
Storing the current CI vectors                 ... o.k.

                       ****Iteration    5****

Building the sigma vectors                     ...    Time for densities:            0.183
Average shell size            =     8.290 au
Total number of shells        =       462    
Av no of R-interacting shells =       192 
Av no of P-interacting shells =       462 
Av no of primary shells       =       105 
Av no of secondary shells     =       462 
Av no of tertiary shells      =       462 
Integration Timings:
Total Time                    =     5.0 sec
Basis fcn evaluation          =     0.0 sec
Density evaluation            =     0.2 sec
Integral evaluation           =     4.5 sec
K(P) evaluation               =     0.2 sec
   Time for K (COSX):             5.255
   Time for XC-Integration:       0.686
   Time for Sigma-Completion:     0.118
o.k.
Building the Hamiltonian                       ... o.k.
Diagonalizing the Hamiltonian                  ... o.k.
   Size of expansion space: 40
   lowest eigenvalues of A:
    E[ 0] =     0.0639727267 (change=  -0.0000000064)  1.741 eV
    E[ 1] =     0.0761210820 (change=  -0.0000000327)  2.071 eV
    E[ 2] =     0.1072667461 (change=  -0.0000002961)  2.919 eV
    E[ 3] =     0.1100506029 (change=  -0.0000005195)  2.995 eV
    E[ 4] =     0.1184197250 (change=  -0.0000022117)  3.222 eV
   Lowest Energy          :     0.063972726695
   Maximum Energy change  :     0.000002211684 (vector 4)
   Maximum residual norm  :     0.000000077634

      *** CONVERGENCE OF RESIDUAL NORM REACHED ***

Storing the converged CI vectors               ... /dev/shm/slurm.malcolms.9869179/9869179/T2/T2_OPT.cis3

                 *** DAVIDSON DONE ***

------------------------------------
TD-DFT/TDA EXCITED STATES (TRIPLETS)
------------------------------------

the weight of the individual excitations are printed if larger than 1.0e-02

STATE  1:  E=   0.063973 au      1.741 eV    14040.4 cm**-1 <S**2> =   2.000000
   186a -> 193a  :     0.054458 (c= -0.23336171)
   189a -> 192a  :     0.055889 (c= -0.23640767)
   190a -> 193a  :     0.057333 (c= -0.23944206)
   191a -> 192a  :     0.786859 (c=  0.88705089)

STATE  2:  E=   0.076121 au      2.071 eV    16706.6 cm**-1 <S**2> =   2.000000
   186a -> 192a  :     0.183852 (c=  0.42877937)
   189a -> 193a  :     0.014721 (c=  0.12132921)
   190a -> 192a  :     0.314116 (c=  0.56046090)
   191a -> 193a  :     0.411272 (c= -0.64130506)

STATE  3:  E=   0.107267 au      2.919 eV    23542.3 cm**-1 <S**2> =   2.000000
   181a -> 192a  :     0.051191 (c= -0.22625493)
   182a -> 192a  :     0.042876 (c=  0.20706516)
   189a -> 192a  :     0.473058 (c=  0.68779185)
   190a -> 193a  :     0.260090 (c= -0.50999021)
   191a -> 196a  :     0.051750 (c= -0.22748715)
   191a -> 197a  :     0.010207 (c=  0.10102828)
   191a -> 199a  :     0.048813 (c=  0.22093718)

STATE  4:  E=   0.110051 au      2.995 eV    24153.3 cm**-1 <S**2> =   2.000000
   186a -> 192a  :     0.050292 (c=  0.22425843)
   189a -> 193a  :     0.108237 (c=  0.32899392)
   190a -> 192a  :     0.609985 (c= -0.78101553)
   191a -> 193a  :     0.198538 (c= -0.44557614)

STATE  5:  E=   0.118420 au      3.222 eV    25990.1 cm**-1 <S**2> =   2.000000
   181a -> 192a  :     0.024593 (c= -0.15682278)
   182a -> 192a  :     0.034755 (c=  0.18642631)
   186a -> 193a  :     0.185460 (c= -0.43065017)
   189a -> 192a  :     0.332238 (c= -0.57640063)
   190a -> 193a  :     0.147058 (c= -0.38348131)
   191a -> 192a  :     0.162232 (c= -0.40278062)
   191a -> 196a  :     0.032875 (c= -0.18131409)
   191a -> 199a  :     0.014858 (c=  0.12189514)


-----------------------------
TD-DFT/TDA-EXCITATION SPECTRA
-----------------------------

Center of mass = ( -0.0002,  0.0047,  0.0093)
Calculating the Dipole integrals                  ... done
Transforming integrals                            ... done
Calculating the Linear Momentum integrals         ... done
Transforming integrals                            ... done
Calculating angular momentum integrals            ... done
Transforming integrals                            ... done

-----------------------------------------------------------------------------
         ABSORPTION SPECTRUM VIA TRANSITION ELECTRIC DIPOLE MOMENTS
-----------------------------------------------------------------------------
State   Energy    Wavelength  fosc         T2        TX        TY        TZ  
        (cm-1)      (nm)                 (au**2)    (au)      (au)      (au) 
-----------------------------------------------------------------------------
   1   21349.0    468.4   3.219258348  49.64256  -7.04575   0.00098   0.00061
   2   24336.0    410.9   0.029126982   0.39402   0.00001   0.56712  -0.26908
   3   27015.2    370.2   0.069910721   0.85195  -0.00049   0.83250  -0.39861
   4   27211.8    367.5   0.363778823   4.40105   2.09787  -0.00011  -0.00046
   5   28509.7    350.8   0.000179044   0.00207   0.00013   0.03934   0.02280
   6   14040.4    712.2   spin forbidden (mult=3)
   7   16706.6    598.6   spin forbidden (mult=3)
   8   23542.3    424.8   spin forbidden (mult=3)
   9   24153.3    414.0   spin forbidden (mult=3)
  10   25990.1    384.8   spin forbidden (mult=3)

-----------------------------------------------------------------------------
         ABSORPTION SPECTRUM VIA TRANSITION VELOCITY DIPOLE MOMENTS
-----------------------------------------------------------------------------
State   Energy    Wavelength   fosc        P2         PX        PY        PZ  
        (cm-1)      (nm)                 (au**2)     (au)      (au)      (au) 
-----------------------------------------------------------------------------
   1   21349.0    468.4   1.978390049   0.28867   0.53728  -0.00006   0.00000
   2   24336.0    410.9   0.002199997   0.00037   0.00000  -0.01723   0.00831
   3   27015.2    370.2   0.002277040   0.00042   0.00006  -0.01853   0.00878
   4   27211.8    367.5   0.263997223   0.04910  -0.22158   0.00002  -0.00000
   5   28509.7    350.8   0.000243593   0.00005   0.00001   0.00399   0.00562
   6   14040.4    712.2   spin forbidden (mult=3)
   7   16706.6    598.6   spin forbidden (mult=3)
   8   23542.3    424.8   spin forbidden (mult=3)
   9   24153.3    414.0   spin forbidden (mult=3)
  10   25990.1    384.8   spin forbidden (mult=3)

-------------------------------------------------------------------
                             CD SPECTRUM
-------------------------------------------------------------------
State  Energy     Wavelength     R         MX        MY        MZ   
       (cm-1)       (nm)     (1e40*cgs)   (au)      (au)      (au)  
-------------------------------------------------------------------
   1   21349.0    468.4      0.43461  -0.00030  -0.50291  -1.10111
   2   24336.0    410.9     -0.02784  -0.04042  -0.00012  -0.00003
   3   27015.2    370.2     -0.04602  -0.05406  -0.00019  -0.00009
   4   27211.8    367.5      0.01142   0.00013   0.24246   0.49868
   5   28509.7    350.8     -0.04442   0.01359  -0.00025  -0.00378
   6   14040.4    712.2 spin forbidden
   7   16706.6    598.6 spin forbidden
   8   23542.3    424.8 spin forbidden
   9   24153.3    414.0 spin forbidden
  10   25990.1    384.8 spin forbidden

-------------------------------------------------------------------
         CD SPECTRUM VIA TRANSITION VELOCITY DIPOLE MOMENTS        
-------------------------------------------------------------------
State  Energy     Wavelength     R         MX        MY        MZ   
       (cm-1)       (nm)     (1e40*cgs)   (au)      (au)      (au)  
-------------------------------------------------------------------
   1   21349.0    468.4     -0.63120  -0.00030  -0.50291  -1.10111
   2   24336.0    410.9      0.00703  -0.04042  -0.00012  -0.00003
   3   27015.2    370.2     -0.00223  -0.05406  -0.00019  -0.00009
   4   27211.8    367.5     -0.09406   0.00013   0.24246   0.49868
   5   28509.7    350.8     -0.08002   0.01359  -0.00025  -0.00378
   6   14040.4    712.2 spin forbidden
   7   16706.6    598.6 spin forbidden
   8   23542.3    424.8 spin forbidden
   9   24153.3    414.0 spin forbidden
  10   25990.1    384.8 spin forbidden

Total run time:      120.835 sec

           *** ORCA-CIS/TD-DFT FINISHED WITHOUT ERROR ***

Maximum memory used throughout the entire CIS-calculation: 576.0 MB

-----------------------
CIS/TD-DFT TOTAL ENERGY
-----------------------

    E(SCF)  =  -2225.345580715 Eh
    DE(CIS) =      0.076121082 Eh (Triplet root  2)
    ----------------------------- ---------
    E(tot)  =  -2225.269459633 Eh



-------------------------------------------------------------------------------
                          DFT DISPERSION CORRECTION                            
                                                                               
                              DFTD3 V3.1  Rev 1                                
                          USING Becke-Johnson damping                          
-------------------------------------------------------------------------------
-------------------------   ----------------
Dispersion correction           -0.130685792
-------------------------   ----------------


-------------------------   --------------------
FINAL SINGLE POINT ENERGY     -2225.400145424811
-------------------------   --------------------

                                *** OPTIMIZATION RUN DONE ***

                            ***************************************
                            *     ORCA property calculations      *
                            ***************************************

                                    ---------------------
                                    Active property flags
                                    ---------------------
   (+) Dipole Moment


------------------------------------------------------------------------------
                       ORCA ELECTRIC PROPERTIES CALCULATION
------------------------------------------------------------------------------

Dipole Moment Calculation                       ... on
Quadrupole Moment Calculation                   ... off
Polarizability Calculation                      ... off
GBWName                                         ... /dev/shm/slurm.malcolms.9869179/9869179/T2/T2_OPT.gbw
Electron density                                ... /dev/shm/slurm.malcolms.9869179/9869179/T2/T2_OPT.scfp
The origin for moment calculation is the CENTER OF MASS  = (-0.000157,  0.004714  0.009289)

-------------
DIPOLE MOMENT
-------------
                                X             Y             Z
Electronic contribution:     -0.00035      -3.16896       1.90478
Nuclear contribution   :      0.00033       3.04288      -1.85209
                        -----------------------------------------
Total Dipole Moment    :     -0.00003      -0.12608       0.05269
                        -----------------------------------------
Magnitude (a.u.)       :      0.13665
Magnitude (Debye)      :      0.34733



--------------------
Rotational spectrum 
--------------------
 
Rotational constants in cm-1:     0.005189     0.000248     0.000240 
Rotational constants in MHz :   155.576316     7.425674     7.210004 

 Dipole components along the rotational axes: 
x,y,z [a.u.] :    -0.000011    -0.125537     0.053969 
x,y,z [Debye]:    -0.000027    -0.319090     0.137178 

 

                        *** CIS RELAXED DENSITY ***

------------------------------------------------------------------------------
                       ORCA ELECTRIC PROPERTIES CALCULATION
------------------------------------------------------------------------------

Dipole Moment Calculation                       ... on
Quadrupole Moment Calculation                   ... off
Polarizability Calculation                      ... off
GBWName                                         ... /dev/shm/slurm.malcolms.9869179/9869179/T2/T2_OPT.gbw
Electron density                                ... /dev/shm/slurm.malcolms.9869179/9869179/T2/T2_OPT.cisp
The origin for moment calculation is the CENTER OF MASS  = (-0.000157,  0.004714  0.009289)

-------------
DIPOLE MOMENT
-------------
                                X             Y             Z
Electronic contribution:     -0.00433      -3.02615       1.83654
Nuclear contribution   :      0.00033       3.04288      -1.85209
                        -----------------------------------------
Total Dipole Moment    :     -0.00400       0.01673      -0.01555
                        -----------------------------------------
Magnitude (a.u.)       :      0.02319
Magnitude (Debye)      :      0.05895



--------------------
Rotational spectrum 
--------------------
 
Rotational constants in cm-1:     0.005189     0.000248     0.000240 
Rotational constants in MHz :   155.576316     7.425674     7.210004 

 Dipole components along the rotational axes: 
x,y,z [a.u.] :    -0.004005     0.016571    -0.015722 
x,y,z [Debye]:    -0.010180     0.042120    -0.039963 

 

Timings for individual modules:

Sum of individual times         ...     2048.564 sec (=  34.143 min)
GTO integral calculation        ...       14.405 sec (=   0.240 min)   0.7 %
SCF iterations                  ...      788.711 sec (=  13.145 min)  38.5 %
CIS module                      ...      656.666 sec (=  10.944 min)  32.1 %
SCF Gradient evaluation         ...      586.559 sec (=   9.776 min)  28.6 %
Geometry relaxation             ...        2.223 sec (=   0.037 min)   0.1 %
                             ****ORCA TERMINATED NORMALLY****
TOTAL RUN TIME: 0 days 0 hours 34 minutes 17 seconds 881 msec
