80
 energy: -129.005662614057 gnorm: 0.000069935676 xtb: 6.4.1 (afa7bdf)
C        -3.76666692043423    0.63652676079775    0.47835250314183
C        -2.84883715180702   -0.21616540128949   -0.08468922576602
C        -1.45272110096033   -0.11240186554430   -0.00023207968295
C        -0.72761465741654    0.90729926026103    0.69793872691763
N         0.55860072436902    1.01315941837338    0.77021321715742
C         1.38926413863441    0.11790351575038    0.15916088488601
C         2.76277062119868    0.35352361671478    0.30953200853085
C         3.75655549417622   -0.43022916105491   -0.22797474011868
C         5.15636206846030   -0.21866810810706   -0.10711987700898
C         5.73149336209950    0.84926782089436    0.61167866787267
C         7.09324590292429    1.00590679321043    0.68664006328356
C         7.95003201102086    0.10044835717749    0.05207151823451
N         9.33258960613580    0.26055801953038    0.13006059411396
C        10.24639092745924   -0.73293844328178    0.43041584957456
C        10.02892067428895   -2.05721334780188    0.78409084682722
C        11.13279463581616   -2.83804434955181    1.07132865720379
C        12.42404420714780   -2.31895477046785    1.02190785957414
C        12.64463811877193   -0.99322864941925    0.70126378822749
C        11.55168771244559   -0.19030090618101    0.40821429013727
C        11.41079720427465    1.19978176094950    0.06988343218054
C        12.32013895562380    2.22989344670059   -0.12250120013305
C        11.84177737339186    3.47611905002669   -0.47902891249921
C        10.47863406085961    3.69384509982019   -0.66232863534015
C         9.55431506867064    2.68278420720878   -0.47735698347041
C        10.02602533475359    1.43676544189173   -0.08887257322023
C         7.39988254559427   -0.96895192914535   -0.66240406199101
C         6.03845848145094   -1.12013264699197   -0.73977529307170
C         0.80949863654638   -0.96409551233708   -0.57304384383536
N         1.42103732429137   -1.93649420444714   -1.23117542569173
S         0.28894950918171   -2.91565691502606   -1.89506551368166
N        -1.02343698973657   -2.11637003632434   -1.35542216793535
C        -0.62282071549596   -1.07117514886869   -0.64689318602013
C        -5.18189757840554    0.52080046434513    0.38181517420107
C        -5.99446282277198    1.47193715984333    1.03262602069234
C        -7.36437466577157    1.41112771142545    0.97334419866210
C        -7.99311020540851    0.38694429972030    0.25855649845175
N        -9.38355711074636    0.31613393476115    0.19691908579478
C       -10.23724471398319    1.36638882440046   -0.08779648618937
C        -9.94238835140096    2.67859108629108   -0.42973574831525
C       -10.99868215548564    3.52740775491441   -0.70295837212176
C       -12.31853416045934    3.08656664025970   -0.65110382840330
C       -12.61683279909806    1.77344822950937   -0.34189952307903
C       -11.57273750109701    0.90329368216890   -0.06293320526966
C       -11.51453987556414   -0.49626602596789    0.26034913926173
C       -12.48369543675176   -1.47146892814021    0.44734728568852
C       -12.07989262545307   -2.74818203002396    0.78762339893944
C       -10.73152818500700   -3.05006465668875    0.96039937379795
C        -9.74864070630817   -2.09486923632983    0.78046619968477
C       -10.14605673976538   -0.81854039726252    0.40782741129895
C        -7.20529447295829   -0.56647721742752   -0.39441436515513
C        -5.83549347455326   -0.50044520587716   -0.33660775826768
H        -3.40805441619792    1.48048563788982    1.05210371218398
H        -3.19334239018857   -1.06445397797085   -0.66040240692754
H        -1.27730442738783    1.67708256566246    1.22369352938649
H         3.00046972333928    1.22871660483480    0.89786566820111
H         3.44531246381861   -1.29186124211200   -0.80253470560228
H         5.09366899230074    1.55209640948874    1.12366499330990
H         7.51637904642727    1.81485471753466    1.26379885164098
H         9.03173698267196   -2.46478148347243    0.84862071285880
H        10.98935128997390   -3.87275925888824    1.34492140608467
H        13.26081615721534   -2.96207798076342    1.24983674683108
H        13.64372759317439   -0.58497975760210    0.68352660311354
H        13.37837334461843    2.05508606401126   -0.00106087567169
H        12.53204332299037    4.29241679486438   -0.63049049277343
H        10.13542710574785    4.67325377432248   -0.96073161997057
H         8.50279975935143    2.85778827726432   -0.64565153066631
H         8.05659967317654   -1.65448584503546   -1.17714856891856
H         5.62176959815002   -1.93949164281985   -1.30685796838978
H        -5.52154489556168    2.25988423200513    1.60106388265480
H        -7.96646736836244    2.13477039240289    1.50238822688108
H        -8.92286585237123    3.02621038006470   -0.49673407528649
H       -10.79453233328369    4.55425210650126   -0.96754002764308
H       -13.11616670847660    3.78106015461002   -0.86827356814667
H       -13.63851348702534    1.42572809344771   -0.32257524229452
H       -13.52997639465862   -1.23154501714691    0.33400625247553
H       -12.81747483978150   -3.52286477474708    0.93435324873031
H       -10.44655298856070   -4.05164658914264    1.24613020360513
H        -8.70883109437381   -2.33553710460648    0.94027555536939
H        -7.68694087836503   -1.34095808003768   -0.97265864094150
H        -5.25440986601429   -1.23993846439662   -0.86394643160538
