
                                 *****************
                                 * O   R   C   A *
                                 *****************

                                            #,                                       
                                            ###                                      
                                            ####                                     
                                            #####                                    
                                            ######                                   
                                           ########,                                 
                                     ,,################,,,,,                         
                               ,,#################################,,                 
                          ,,##########################################,,             
                       ,#########################################, ''#####,          
                    ,#############################################,,   '####,        
                  ,##################################################,,,,####,       
                ,###########''''           ''''###############################       
              ,#####''   ,,,,##########,,,,          '''####'''          '####       
            ,##' ,,,,###########################,,,                        '##       
           ' ,,###''''                  '''############,,,                           
         ,,##''                                '''############,,,,        ,,,,,,###''
      ,#''                                            '''#######################'''  
     '                                                          ''''####''''         
             ,#######,   #######,   ,#######,      ##                                
            ,#'     '#,  ##    ##  ,#'     '#,    #''#        ######   ,####,        
            ##       ##  ##   ,#'  ##            #'  '#       #        #'  '#        
            ##       ##  #######   ##           ,######,      #####,   #    #        
            '#,     ,#'  ##    ##  '#,     ,#' ,#      #,         ##   #,  ,#        
             '#######'   ##     ##  '#######'  #'      '#     #####' # '####'        



                  #######################################################
                  #                        -***-                        #
                  #          Department of theory and spectroscopy      #
                  #    Directorship and core code : Frank Neese         #
                  #        Max Planck Institute fuer Kohlenforschung    #
                  #                Kaiser Wilhelm Platz 1               #
                  #                 D-45470 Muelheim/Ruhr               #
                  #                      Germany                        #
                  #                                                     #
                  #                  All rights reserved                #
                  #                        -***-                        #
                  #######################################################


                         Program Version 5.0.3 -  RELEASE  -


 With contributions from (in alphabetic order):
   Daniel Aravena         : Magnetic Suceptibility
   Michael Atanasov       : Ab Initio Ligand Field Theory (pilot matlab implementation)
   Alexander A. Auer      : GIAO ZORA, VPT2 properties, NMR spectrum
   Ute Becker             : Parallelization
   Giovanni Bistoni       : ED, misc. LED, open-shell LED, HFLD
   Martin Brehm           : Molecular dynamics
   Dmytro Bykov           : SCF Hessian
   Vijay G. Chilkuri      : MRCI spin determinant printing, contributions to CSF-ICE
   Dipayan Datta          : RHF DLPNO-CCSD density
   Achintya Kumar Dutta   : EOM-CC, STEOM-CC
   Dmitry Ganyushin       : Spin-Orbit,Spin-Spin,Magnetic field MRCI
   Miquel Garcia          : C-PCM and meta-GGA Hessian, CC/C-PCM, Gaussian charge scheme
   Yang Guo               : DLPNO-NEVPT2, F12-NEVPT2, CIM, IAO-localization
   Andreas Hansen         : Spin unrestricted coupled pair/coupled cluster methods
   Benjamin Helmich-Paris : MC-RPA, TRAH-SCF, COSX integrals
   Lee Huntington         : MR-EOM, pCC
   Robert Izsak           : Overlap fitted RIJCOSX, COSX-SCS-MP3, EOM
   Marcus Kettner         : VPT2
   Christian Kollmar      : KDIIS, OOCD, Brueckner-CCSD(T), CCSD density, CASPT2, CASPT2-K
   Simone Kossmann        : Meta GGA functionals, TD-DFT gradient, OOMP2, MP2 Hessian
   Martin Krupicka        : Initial AUTO-CI
   Lucas Lang             : DCDCAS
   Marvin Lechner         : AUTO-CI (C++ implementation), FIC-MRCC
   Dagmar Lenk            : GEPOL surface, SMD
   Dimitrios Liakos       : Extrapolation schemes; Compound Job, initial MDCI parallelization
   Dimitrios Manganas     : Further ROCIS development; embedding schemes
   Dimitrios Pantazis     : SARC Basis sets
   Anastasios Papadopoulos: AUTO-CI, single reference methods and gradients
   Taras Petrenko         : DFT Hessian,TD-DFT gradient, ASA, ECA, R-Raman, ABS, FL, XAS/XES, NRVS
   Peter Pinski           : DLPNO-MP2, DLPNO-MP2 Gradient
   Christoph Reimann      : Effective Core Potentials
   Marius Retegan         : Local ZFS, SOC
   Christoph Riplinger    : Optimizer, TS searches, QM/MM, DLPNO-CCSD(T), (RO)-DLPNO pert. Triples
   Tobias Risthaus        : Range-separated hybrids, TD-DFT gradient, RPA, STAB
   Michael Roemelt        : Original ROCIS implementation
   Masaaki Saitow         : Open-shell DLPNO-CCSD energy and density
   Barbara Sandhoefer     : DKH picture change effects
   Avijit Sen             : IP-ROCIS
   Kantharuban Sivalingam : CASSCF convergence, NEVPT2, FIC-MRCI
   Bernardo de Souza      : ESD, SOC TD-DFT
   Georgi Stoychev        : AutoAux, RI-MP2 NMR, DLPNO-MP2 response
   Willem Van den Heuvel  : Paramagnetic NMR
   Boris Wezisla          : Elementary symmetry handling
   Frank Wennmohs         : Technical directorship


 We gratefully acknowledge several colleagues who have allowed us to
 interface, adapt or use parts of their codes:
   Stefan Grimme, W. Hujo, H. Kruse, P. Pracht,  : VdW corrections, initial TS optimization,
                  C. Bannwarth, S. Ehlert          DFT functionals, gCP, sTDA/sTD-DF
   Ed Valeev, F. Pavosevic, A. Kumar             : LibInt (2-el integral package), F12 methods
   Garnet Chan, S. Sharma, J. Yang, R. Olivares  : DMRG
   Ulf Ekstrom                                   : XCFun DFT Library
   Mihaly Kallay                                 : mrcc  (arbitrary order and MRCC methods)
   Jiri Pittner, Ondrej Demel                    : Mk-CCSD
   Frank Weinhold                                : gennbo (NPA and NBO analysis)
   Christopher J. Cramer and Donald G. Truhlar   : smd solvation model
   Lars Goerigk                                  : TD-DFT with DH, B97 family of functionals
   V. Asgeirsson, H. Jonsson                     : NEB implementation
   FAccTs GmbH                                   : IRC, NEB, NEB-TS, DLPNO-Multilevel, CI-OPT
                                                   MM, QMMM, 2- and 3-layer-ONIOM, Crystal-QMMM,
                                                   LR-CPCM, SF, NACMEs, symmetry and pop. for TD-DFT,
                                                   nearIR, NL-DFT gradient (VV10), updates on ESD,
                                                   ML-optimized integration grids
   S Lehtola, MJT Oliveira, MAL Marques          : LibXC Library
   Liviu Ungur et al                             : ANISO software


 Your calculation uses the libint2 library for the computation of 2-el integrals
 For citations please refer to: http://libint.valeyev.net

 Your ORCA version has been built with support for libXC version: 5.1.0
 For citations please refer to: https://tddft.org/programs/libxc/

 This ORCA versions uses:
   CBLAS   interface :  Fast vector & matrix operations
   LAPACKE interface :  Fast linear algebra routines
   SCALAPACK package :  Parallel linear algebra routines
   Shared memory     :  Shared parallel matrices
   BLAS/LAPACK       :  OpenBLAS 0.3.15  USE64BITINT DYNAMIC_ARCH NO_AFFINITY SkylakeX SINGLE_THREADED
        Core in use  :  SkylakeX
   Copyright (c) 2011-2014, The OpenBLAS Project




***************************************
The coordinates will be read from file: orcaopt.xyz
***************************************


Your calculation utilizes the atom-pairwise dispersion correction
with the Becke-Johnson damping scheme (D3BJ)
Cite in your paper:
S.Grimme, S.Ehrlich, L.Goerigk, J Comput Chem, (2011), 32, 1456–1465 
S.Grimme, J.Antony, S.Ehrlich and H.Krieg, J.Chem.Phys., 132, (2010), 154104 
   

================================================================================

----- Orbital basis set information -----
Your calculation utilizes the basis: def2-SVP
   F. Weigend and R. Ahlrichs, Phys. Chem. Chem. Phys. 7, 3297 (2005).

----- AuxJ basis set information -----
Your calculation utilizes the auxiliary basis: def2/J
   F. Weigend, Phys. Chem. Chem. Phys. 8, 1057 (2006).

================================================================================
                                        WARNINGS
                       Please study these warnings very carefully!
================================================================================

INFO   : Checking CIS options ...

WARNING: CIS/ROCIS methods need fully converged wavefunctions
  ===> : Setting SCFConvForced true
         You can overwrite this default with %scf ConvForced false 


INFO   : the flag for use of the SHARK integral package has been found!

================================================================================
                                       INPUT FILE
================================================================================
NAME = TDA_SP_COMB.inp
|  1> ! PBE0 def2-SVP D3BJ def2/J RIJCOSX tightSCF noautostart miniprint nopop defgrid3
|  2> ! EnGrad
|  3> %maxcore    4000
|  4> %pal    nprocs  8  end
|  5> %tddft  PrintLevel  3
|  6> 	IRootMult	Singlet
|  7> 	TDA	True
|  8> 	NRoots	5
|  9>         MaxDim  10
| 10> end
| 11> * xyzfile 0 1 orcaopt.xyz
| 12> 
| 13> 
| 14>                          ****END OF INPUT****
================================================================================

                     *******************************
                     * Energy+Gradient Calculation *
                     *******************************

---------------------------------
CARTESIAN COORDINATES (ANGSTROEM)
---------------------------------
  C      2.249683    2.148036   -0.758383
  C      2.893019    3.253178   -0.205304
  C      4.281008    3.347526    0.059252
  C      4.829873    4.550940    0.592926
  C      6.179280    4.642417    0.829466
  C      7.001904    3.545037    0.538896
  C      6.383769    2.393213    0.031571
  C      7.207772    1.194620   -0.279608
  C      8.466301    1.322475   -0.884547
  C      9.188114    0.173520   -1.169623
  C      8.649011   -1.062324   -0.835701
  C      7.394725   -1.089679   -0.217477
  C      6.743098   -2.366745    0.170824
  C      7.477285   -3.538585    0.415000
  C      6.789686   -4.694946    0.757322
  C      5.405710   -4.654250    0.857760
  C      4.756890   -3.432943    0.620791
  C      3.308982   -3.315922    0.752793
  C      2.657495   -2.135063    0.727952
  C      1.216959   -1.990639    0.836407
  C      0.670199   -0.762126    1.228981
  C     -0.699183   -0.573893    1.291409
  C     -1.561734   -1.618761    0.949176
  N     -2.956952   -1.440288    0.977244
  C     -3.833440   -1.828000   -0.023673
  C     -3.560620   -2.320622   -1.303479
  C     -4.639930   -2.626294   -2.117695
  C     -5.957573   -2.440394   -1.682197
  C     -6.226953   -1.928214   -0.417933
  C     -5.162410   -1.610428    0.414328
  C     -5.070733   -1.054760    1.745640
  C     -6.014837   -0.659271    2.679083
  C     -5.576720   -0.189095    3.917100
  C     -4.214200   -0.128509    4.220806
  C     -3.249463   -0.521202    3.299216
  C     -3.692183   -0.964894    2.054323
  C     -1.035517   -2.858109    0.563753
  C      0.332149   -3.036992    0.512445
  N      5.425026   -2.333348    0.280953
  N      6.702022    0.012167    0.042854
  N      5.089581    2.288759   -0.199922
  C      0.850583    2.049839   -0.977384
  C      0.272475    0.878887   -1.536926
  C     -1.090836    0.694477   -1.605129
  C     -1.970066    1.699653   -1.174454
  N     -3.371722    1.490535   -1.161619
  C     -4.201651    1.785939   -0.103903
  C     -3.881479    2.260063    1.175172
  C     -4.921642    2.508696    2.052004
  C     -6.256696    2.267270    1.694835
  C     -6.575344    1.758695    0.441644
  C     -5.548513    1.510639   -0.466395
  C     -5.503420    0.985157   -1.808992
  C     -6.470894    0.509133   -2.688444
  C     -6.078715    0.070973   -3.949989
  C     -4.736272    0.127755   -4.337057
  C     -3.750541    0.600307   -3.477655
  C     -4.141261    1.007539   -2.202981
  C     -1.431192    2.915987   -0.729224
  C     -0.069699    3.082697   -0.619055
  H      2.878001    1.292329   -1.021848
  H      2.309822    4.135388    0.052587
  H      4.167592    5.388000    0.802169
  H      6.607543    5.554441    1.241049
  H      8.068990    3.569495    0.734676
  H      8.848480    2.305105   -1.147439
  H     10.156122    0.236679   -1.662636
  H      9.180884   -1.979736   -1.071267
  H      8.561924   -3.538084    0.356032
  H      7.331024   -5.617976    0.955021
  H      4.834512   -5.539174    1.127804
  H      2.766136   -4.247550    0.910999
  H      3.251901   -1.219062    0.633651
  H      1.335137    0.073268    1.434343
  H     -1.101503    0.406562    1.520694
  H     -2.542016   -2.460191   -1.654790
  H     -4.457057   -3.002474   -3.120743
  H     -6.779605   -2.684244   -2.349946
  H     -7.250560   -1.763078   -0.091134
  H     -7.076219   -0.714914    2.448664
  H     -6.304662    0.127183    4.660319
  H     -3.898449    0.224944    5.199351
  H     -2.192881   -0.495011    3.548696
  H     -1.708845   -3.676963    0.322617
  H      0.727155   -3.996668    0.189974
  H      0.935436    0.078727   -1.858272
  H     -1.487561   -0.251796   -1.955701
  H     -2.851748    2.436991    1.466041
  H     -4.695919    2.885573    3.046239
  H     -7.045457    2.472095    2.415048
  H     -7.609415    1.557318    0.171056
  H     -7.516991    0.475566   -2.393125
  H     -6.822819   -0.307170   -4.646719
  H     -4.454084   -0.196996   -5.336065
  H     -2.712495    0.657673   -3.791570
  H     -2.101484    3.728436   -0.455792
  H      0.310359    4.026765   -0.239979

----------------------------
CARTESIAN COORDINATES (A.U.)
----------------------------
  NO LB      ZA    FRAG     MASS         X           Y           Z
   0 C     6.0000    0    12.011    4.251285    4.059200   -1.433137
   1 C     6.0000    0    12.011    5.467013    6.147615   -0.387969
   2 C     6.0000    0    12.011    8.089932    6.325907    0.111970
   3 C     6.0000    0    12.011    9.127137    8.600030    1.120468
   4 C     6.0000    0    12.011   11.677146    8.772898    1.567463
   5 C     6.0000    0    12.011   13.231681    6.699148    1.018366
   6 C     6.0000    0    12.011   12.063576    4.522517    0.059661
   7 C     6.0000    0    12.011   13.620715    2.257505   -0.528382
   8 C     6.0000    0    12.011   15.998990    2.499116   -1.671551
   9 C     6.0000    0    12.011   17.363019    0.327906   -2.210267
  10 C     6.0000    0    12.011   16.344263   -2.007502   -1.579247
  11 C     6.0000    0    12.011   13.974006   -2.059195   -0.410972
  12 C     6.0000    0    12.011   12.742608   -4.472500    0.322811
  13 C     6.0000    0    12.011   14.130021   -6.686957    0.784235
  14 C     6.0000    0    12.011   12.830648   -8.872162    1.431130
  15 C     6.0000    0    12.011   10.215311   -8.795257    1.620931
  16 C     6.0000    0    12.011    8.989220   -6.487322    1.173125
  17 C     6.0000    0    12.011    6.253070   -6.266184    1.422572
  18 C     6.0000    0    12.011    5.021938   -4.034684    1.375630
  19 C     6.0000    0    12.011    2.299719   -3.761763    1.580581
  20 C     6.0000    0    12.011    1.266492   -1.440209    2.322438
  21 C     6.0000    0    12.011   -1.321265   -1.084501    2.440410
  22 C     6.0000    0    12.011   -2.951249   -3.059015    1.793682
  23 N     7.0000    0    14.007   -5.587829   -2.721750    1.846723
  24 C     6.0000    0    12.011   -7.244152   -3.454420   -0.044736
  25 C     6.0000    0    12.011   -6.728597   -4.385340   -2.463218
  26 C     6.0000    0    12.011   -8.768196   -4.962977   -4.001864
  27 C     6.0000    0    12.011  -11.258181   -4.611676   -3.178891
  28 C     6.0000    0    12.011  -11.767236   -3.643796   -0.789779
  29 C     6.0000    0    12.011   -9.755541   -3.043267    0.782967
  30 C     6.0000    0    12.011   -9.582297   -1.993207    3.298782
  31 C     6.0000    0    12.011  -11.366396   -1.245841    5.062733
  32 C     6.0000    0    12.011  -10.538473   -0.357337    7.402247
  33 C     6.0000    0    12.011   -7.963684   -0.242846    7.976167
  34 C     6.0000    0    12.011   -6.140596   -0.984929    6.234614
  35 C     6.0000    0    12.011   -6.977215   -1.823385    3.882108
  36 C     6.0000    0    12.011   -1.956843   -5.401043    1.065339
  37 C     6.0000    0    12.011    0.627670   -5.739084    0.968382
  38 N     7.0000    0    14.007   10.251813   -4.409389    0.530925
  39 N     7.0000    0    14.007   12.664987    0.022992    0.080982
  40 N     7.0000    0    14.007    9.617914    4.325128   -0.377797
  41 C     6.0000    0    12.011    1.607369    3.873634   -1.846989
  42 C     6.0000    0    12.011    0.514904    1.660856   -2.904370
  43 C     6.0000    0    12.011   -2.061382    1.312372   -3.033255
  44 C     6.0000    0    12.011   -3.722886    3.211879   -2.219397
  45 N     7.0000    0    14.007   -6.371631    2.816703   -2.195143
  46 C     6.0000    0    12.011   -7.939970    3.374935   -0.196348
  47 C     6.0000    0    12.011   -7.334933    4.270901    2.220754
  48 C     6.0000    0    12.011   -9.300555    4.740748    3.877725
  49 C     6.0000    0    12.011  -11.823442    4.284520    3.202774
  50 C     6.0000    0    12.011  -12.425599    3.323452    0.834587
  51 C     6.0000    0    12.011  -10.485170    2.854695   -0.881359
  52 C     6.0000    0    12.011  -10.399956    1.861677   -3.418499
  53 C     6.0000    0    12.011  -12.228218    0.962122   -5.080422
  54 C     6.0000    0    12.011  -11.487107    0.134119   -7.464397
  55 C     6.0000    0    12.011   -8.950257    0.241423   -8.195849
  56 C     6.0000    0    12.011   -7.087496    1.134415   -6.571816
  57 C     6.0000    0    12.011   -7.825849    1.903974   -4.163030
  58 C     6.0000    0    12.011   -2.704561    5.510418   -1.378034
  59 C     6.0000    0    12.011   -0.131713    5.825453   -1.169844
  60 H     1.0000    0     1.008    5.438635    2.442149   -1.931013
  61 H     1.0000    0     1.008    4.364931    7.814751    0.099375
  62 H     1.0000    0     1.008    7.875608   10.181845    1.515880
  63 H     1.0000    0     1.008   12.486446   10.496372    2.345242
  64 H     1.0000    0     1.008   15.248181    6.745369    1.388336
  65 H     1.0000    0     1.008   16.721205    4.356017   -2.168345
  66 H     1.0000    0     1.008   19.192288    0.447258   -3.141927
  67 H     1.0000    0     1.008   17.349357   -3.741159   -2.024401
  68 H     1.0000    0     1.008   16.179692   -6.686009    0.672803
  69 H     1.0000    0     1.008   13.853627  -10.616436    1.804728
  70 H     1.0000    0     1.008    9.135903  -10.467522    2.131240
  71 H     1.0000    0     1.008    5.227240   -8.026707    1.721539
  72 H     1.0000    0     1.008    6.145202   -2.303693    1.197427
  73 H     1.0000    0     1.008    2.523043    0.138457    2.710516
  74 H     1.0000    0     1.008   -2.081540    0.768291    2.873695
  75 H     1.0000    0     1.008   -4.803715   -4.649086   -3.127100
  76 H     1.0000    0     1.008   -8.422617   -5.673853   -5.897351
  77 H     1.0000    0     1.008  -12.811597   -5.072486   -4.440754
  78 H     1.0000    0     1.008  -13.701573   -3.331735   -0.172218
  79 H     1.0000    0     1.008  -13.372116   -1.350992    4.627303
  80 H     1.0000    0     1.008  -11.914084    0.240342    8.806727
  81 H     1.0000    0     1.008   -7.367001    0.425083    9.825349
  82 H     1.0000    0     1.008   -4.143945   -0.935436    6.706063
  83 H     1.0000    0     1.008   -3.229248   -6.948454    0.609657
  84 H     1.0000    0     1.008    1.374124   -7.552607    0.358999
  85 H     1.0000    0     1.008    1.767718    0.148773   -3.511625
  86 H     1.0000    0     1.008   -2.811083   -0.475825   -3.695738
  87 H     1.0000    0     1.008   -5.389023    4.605246    2.770416
  88 H     1.0000    0     1.008   -8.874002    5.452943    5.756558
  89 H     1.0000    0     1.008  -13.313984    4.671583    4.563778
  90 H     1.0000    0     1.008  -14.379711    2.942904    0.323249
  91 H     1.0000    0     1.008  -14.205053    0.898689   -4.522350
  92 H     1.0000    0     1.008  -12.893260   -0.580468   -8.781027
  93 H     1.0000    0     1.008   -8.416999   -0.372268  -10.083702
  94 H     1.0000    0     1.008   -5.125873    1.242821   -7.165028
  95 H     1.0000    0     1.008   -3.971229    7.045723   -0.861323
  96 H     1.0000    0     1.008    0.586493    7.609482   -0.453494



           ************************************************************
           *        Program running with 8 parallel MPI-processes     *
           *              working on a common directory               *
           ************************************************************
------------------------------------------------------------------------------
                   ___                                                        
                  /   \      - P O W E R E D   B Y -                         
                 /     \                                                     
                 |  |  |   _    _      __       _____    __    __             
                 |  |  |  | |  | |    /  \     |  _  \  |  |  /  |          
                  \  \/   | |  | |   /    \    | | | |  |  | /  /          
                 / \  \   | |__| |  /  /\  \   | |_| |  |  |/  /          
                |  |  |   |  __  | /  /__\  \  |    /   |      \           
                |  |  |   | |  | | |   __   |  |    \   |  |\   \          
                \     /   | |  | | |  |  |  |  | |\  \  |  | \   \       
                 \___/    |_|  |_| |__|  |__|  |_| \__\ |__|  \__/        
                                                                              
                      - O R C A' S   B I G   F R I E N D -                    
                                      &                                       
                       - I N T E G R A L  F E E D E R -                       
                                                                              
 v1 FN, 2020, v2 2021                                                         
------------------------------------------------------------------------------


Reading SHARK input file TDA_SP_COMB.SHARKINP.tmp ... ok
----------------------
SHARK INTEGRAL PACKAGE
----------------------

Number of atoms                             ...     97
Number of basis functions                   ...   1025
Number of shells                            ...    471
Maximum angular momentum                    ...      2
Integral batch strategy                     ... SHARK/LIBINT Hybrid
RI-J (if used) integral strategy            ... SPLIT-RIJ (Revised 2003 algorithm where possible)
Printlevel                                  ...      1
Contraction scheme used                     ... SEGMENTED contraction
Coulomb Range Separation                    ... NOT USED
Exchange Range Separation                   ... NOT USED
Finite Nucleus Model                        ... NOT USED
Auxiliary Coulomb fitting basis             ... AVAILABLE
   # of basis functions in Aux-J            ...   3347
   # of shells in Aux-J                     ...   1085
   Maximum angular momentum in Aux-J        ...      4
Auxiliary J/K fitting basis                 ... NOT available
Auxiliary Correlation fitting basis         ... NOT available
Auxiliary 'external' fitting basis          ... NOT available
Integral threshold                          ...     2.500000e-11
Primitive cut-off                           ...     2.500000e-12
Primitive pair pre-selection threshold      ...     2.500000e-12

Calculating pre-screening integrals         ... done (  0.6 sec) Dimension = 471
Organizing shell pair data                  ... done (  1.6 sec)
Shell pair information
Total number of shell pairs                 ...    111156
Shell pairs after pre-screening             ...     53346
Total number of primitive shell pairs       ...    410856
Primitive shell pairs kept                  ...    114829
          la=0 lb=0:  16101 shell pairs
          la=1 lb=0:  20057 shell pairs
          la=1 lb=1:   6384 shell pairs
          la=2 lb=0:   6245 shell pairs
          la=2 lb=1:   3987 shell pairs
          la=2 lb=2:    572 shell pairs

Calculating one electron integrals          ... done (  9.8 sec)
Calculating RI/J V-Matrix + Cholesky decomp.... done (  8.5 sec)
Calculating Nuclear repulsion               ... done (  0.0 sec) ENN=   7914.923724938189 Eh

SHARK setup successfully completed in  24.1 seconds

Maximum memory used throughout the entire GTOINT-calculation: 99.8 MB


           ************************************************************
           *        Program running with 8 parallel MPI-processes     *
           *              working on a common directory               *
           ************************************************************

Diagonalization of the overlap matrix:
Smallest eigenvalue                        ... 1.904e-04
Time for diagonalization                   ...   80.407 sec
Threshold for overlap eigenvalues          ... 1.000e-08
Number of eigenvalues below threshold      ... 0
Time for construction of square roots      ...    4.703 sec
Total time needed                          ...   85.492 sec

Time for model grid setup =   11.303 sec

Loading Hartree-Fock densities                     ... done
Calculating cut-offs                               ... done
Initializing the effective Hamiltonian             ... done
Setting up the integral package (SHARK)            ... done
Starting the Coulomb interaction                   ... done (  10.5 sec)
Reading the grid                                   ... done
Mapping shells                                     ... done
Starting the XC term evaluation                    ... done (   5.5 sec)
  promolecular density results
     # of electrons  =    401.969225662
     EX              =   -325.130502944
     EC              =    -13.570607505
     EX+EC           =   -338.701110449
Transforming the Hamiltonian                       ... done (   3.8 sec)
Diagonalizing the Hamiltonian                      ... done (  63.3 sec)
Back transforming the eigenvectors                 ... done (  16.3 sec)
Now organizing SCF variables                       ... done
-------------------
DFT GRID GENERATION
-------------------

General Integration Accuracy     IntAcc      ... 4.959
Radial Grid Type                 RadialGrid  ... OptM3 with GC (2021)
Angular Grid (max. ang.)         AngularGrid ... 6 (Lebedev-590)
Angular grid pruning method      GridPruning ... 4 (adaptive)
Weight generation scheme         WeightScheme... Becke
Basis function cutoff            BFCut       ... 1.0000e-11
Integration weight cutoff        WCut        ... 1.0000e-14
Angular grids for H and He will be reduced by one unit
Partially contracted basis set               ... off
Rotationally invariant grid construction     ... off

Total number of grid points                  ...  1148084
Total number of batches                      ...    17990
Average number of points per batch           ...       63
Average number of grid points per atom       ...    11836
Time for grid setup =  100.593 sec

--------------------
COSX GRID GENERATION
--------------------

GRIDX 1
-------
General Integration Accuracy     IntAcc      ... 4.020
Radial Grid Type                 RadialGrid  ... OptM3 with GC (2021)
Angular Grid (max. ang.)         AngularGrid ... 2 (Lebedev-110)
Angular grid pruning method      GridPruning ... 4 (adaptive)
Weight generation scheme         WeightScheme... Becke
Basis function cutoff            BFCut       ... 1.0000e-11
Integration weight cutoff        WCut        ... 1.0000e-14
Angular grids for H and He will be reduced by one unit
Partially contracted basis set               ... on
Rotationally invariant grid construction     ... off

Total number of grid points                  ...   128956
Total number of batches                      ...     2063
Average number of points per batch           ...       62
Average number of grid points per atom       ...     1329
UseSFitting                                  ... on

GRIDX 2
-------
General Integration Accuracy     IntAcc      ... 4.338
Radial Grid Type                 RadialGrid  ... OptM3 with GC (2021)
Angular Grid (max. ang.)         AngularGrid ... 3 (Lebedev-194)
Angular grid pruning method      GridPruning ... 4 (adaptive)
Weight generation scheme         WeightScheme... Becke
Basis function cutoff            BFCut       ... 1.0000e-11
Integration weight cutoff        WCut        ... 1.0000e-14
Angular grids for H and He will be reduced by one unit
Partially contracted basis set               ... on
Rotationally invariant grid construction     ... off

Total number of grid points                  ...   280815
Total number of batches                      ...     4436
Average number of points per batch           ...       63
Average number of grid points per atom       ...     2895
UseSFitting                                  ... on

GRIDX 3
-------
General Integration Accuracy     IntAcc      ... 4.871
Radial Grid Type                 RadialGrid  ... OptM3 with GC (2021)
Angular Grid (max. ang.)         AngularGrid ... 4 (Lebedev-302)
Angular grid pruning method      GridPruning ... 4 (adaptive)
Weight generation scheme         WeightScheme... Becke
Basis function cutoff            BFCut       ... 1.0000e-11
Integration weight cutoff        WCut        ... 1.0000e-14
Angular grids for H and He will be reduced by one unit
Partially contracted basis set               ... on
Rotationally invariant grid construction     ... off

Total number of grid points                  ...   515964
Total number of batches                      ...     8109
Average number of points per batch           ...       63
Average number of grid points per atom       ...     5319
UseSFitting                                  ... on

Time for X-Grid setup             =  137.553 sec

--------------
SCF ITERATIONS
--------------
ITER       Energy         Delta-E        Max-DP      RMS-DP      [F,P]     Damp
               ***  Starting incremental Fock matrix formation  ***
  0  -2386.5181308728   0.000000000000 0.07505319  0.00106735  0.1645873 0.7000
  1  -2386.9244500761  -0.406319203326 0.05058876  0.00076260  0.0801327 0.7000
                               ***Turning on DIIS***
  2  -2387.1122797571  -0.187829680919 0.10317057  0.00143227  0.0332343 0.0000
  3  -2387.3972469626  -0.284967205482 0.02851995  0.00046489  0.0349389 0.0000
  4  -2387.4550369530  -0.057789990421 0.01002417  0.00013148  0.0110211 0.0000
  5  -2387.4582878820  -0.003250929049 0.00336915  0.00004710  0.0040506 0.0000
                      *** Initiating the SOSCF procedure ***
                           *** Shutting down DIIS ***
                      *** Re-Reading the Fockian *** 
                      *** Removing any level shift *** 
ITER      Energy       Delta-E        Grad      Rot      Max-DP    RMS-DP
  6  -2387.45859991  -0.0003120300  0.000225  0.000225  0.001249  0.000023
               *** Restarting incremental Fock matrix formation ***
  7  -2387.45860143  -0.0000015147  0.000128  0.000640  0.001118  0.000014
  8  -2387.45859332   0.0000081113  0.000254  0.000374  0.000588  0.000008
  9  -2387.45860667  -0.0000133594  0.000073  0.000244  0.000269  0.000003
 10  -2387.45860599   0.0000006842  0.000118  0.000148  0.000168  0.000002
 11  -2387.45860698  -0.0000009890  0.000014  0.000052  0.000083  0.000001
 12  -2387.45860701  -0.0000000289  0.000029  0.000040  0.000047  0.000001
 13  -2387.45860706  -0.0000000498  0.000004  0.000012  0.000026  0.000000
 14  -2387.45860701   0.0000000493  0.000005  0.000009  0.000017  0.000000
                  ***Gradient check signals convergence***
              ***Rediagonalizing the Fockian in SOSCF/NRSCF***

               *****************************************************
               *                     SUCCESS                       *
               *           SCF CONVERGED AFTER  15 CYCLES          *
               *****************************************************

Old exchange energy                            =    -82.740366202 Eh
New exchange energy                            =    -82.740332953 Eh
Exchange energy change after final integration =      0.000033249 Eh
Total energy after final integration           =  -2387.458573816 Eh
Final COS-X integration done in                =   478.959 sec
Total Energy       :        -2387.45857382 Eh          -64966.05060 eV
  Last Energy change         ...   -5.6305e-08  Tolerance :   1.0000e-08
  Last MAX-Density change    ...    4.8850e-15  Tolerance :   1.0000e-07
             **** THE GBW FILE WAS UPDATED (TDA_SP_COMB.gbw) ****
             **** DENSITY TDA_SP_COMB.scfp WAS UPDATED ****
             **** ENERGY FILE WAS UPDATED (TDA_SP_COMB.en.tmp) ****
             **** THE GBW FILE WAS UPDATED (TDA_SP_COMB.gbw) ****
             **** DENSITY TDA_SP_COMB.scfp WAS UPDATED ****
----------------
ORBITAL ENERGIES
----------------

  NO   OCC          E(Eh)            E(eV) 
   0   2.0000     -14.445677      -393.0869 
   1   2.0000     -14.440699      -392.9514 
   2   2.0000     -14.384017      -391.4090 
   3   2.0000     -14.382204      -391.3597 
   4   2.0000     -14.378274      -391.2527 
   5   2.0000     -10.291109      -280.0353 
   6   2.0000     -10.283968      -279.8410 
   7   2.0000     -10.280153      -279.7372 
   8   2.0000     -10.277225      -279.6575 
   9   2.0000     -10.276986      -279.6510 
  10   2.0000     -10.276821      -279.6465 
  11   2.0000     -10.276225      -279.6303 
  12   2.0000     -10.274908      -279.5945 
  13   2.0000     -10.268560      -279.4217 
  14   2.0000     -10.268397      -279.4173 
  15   2.0000     -10.267522      -279.3935 
  16   2.0000     -10.266947      -279.3778 
  17   2.0000     -10.260040      -279.1899 
  18   2.0000     -10.258185      -279.1394 
  19   2.0000     -10.257105      -279.1100 
  20   2.0000     -10.254601      -279.0419 
  21   2.0000     -10.251159      -278.9482 
  22   2.0000     -10.250457      -278.9291 
  23   2.0000     -10.250264      -278.9239 
  24   2.0000     -10.249552      -278.9045 
  25   2.0000     -10.249157      -278.8937 
  26   2.0000     -10.248811      -278.8843 
  27   2.0000     -10.248708      -278.8815 
  28   2.0000     -10.247792      -278.8566 
  29   2.0000     -10.247405      -278.8461 
  30   2.0000     -10.247012      -278.8354 
  31   2.0000     -10.246240      -278.8144 
  32   2.0000     -10.246187      -278.8129 
  33   2.0000     -10.244079      -278.7556 
  34   2.0000     -10.243564      -278.7415 
  35   2.0000     -10.243444      -278.7383 
  36   2.0000     -10.242476      -278.7119 
  37   2.0000     -10.241131      -278.6753 
  38   2.0000     -10.237799      -278.5847 
  39   2.0000     -10.234075      -278.4833 
  40   2.0000     -10.232483      -278.4400 
  41   2.0000     -10.232285      -278.4346 
  42   2.0000     -10.232149      -278.4309 
  43   2.0000     -10.231599      -278.4160 
  44   2.0000     -10.231396      -278.4104 
  45   2.0000     -10.230740      -278.3926 
  46   2.0000     -10.230636      -278.3898 
  47   2.0000     -10.230441      -278.3844 
  48   2.0000     -10.230379      -278.3828 
  49   2.0000     -10.230168      -278.3770 
  50   2.0000     -10.229454      -278.3576 
  51   2.0000     -10.229320      -278.3539 
  52   2.0000     -10.229293      -278.3532 
  53   2.0000     -10.229021      -278.3458 
  54   2.0000     -10.228938      -278.3435 
  55   2.0000     -10.228232      -278.3243 
  56   2.0000     -10.225092      -278.2389 
  57   2.0000     -10.224432      -278.2209 
  58   2.0000     -10.223592      -278.1981 
  59   2.0000     -10.222670      -278.1730 
  60   2.0000      -1.021486       -27.7960 
  61   2.0000      -1.016804       -27.6686 
  62   2.0000      -0.986796       -26.8521 
  63   2.0000      -0.971264       -26.4294 
  64   2.0000      -0.956116       -26.0172 
  65   2.0000      -0.897373       -24.4188 
  66   2.0000      -0.893410       -24.3109 
  67   2.0000      -0.866659       -23.5830 
  68   2.0000      -0.864750       -23.5311 
  69   2.0000      -0.861895       -23.4534 
  70   2.0000      -0.859606       -23.3911 
  71   2.0000      -0.839652       -22.8481 
  72   2.0000      -0.830936       -22.6109 
  73   2.0000      -0.830087       -22.5878 
  74   2.0000      -0.825584       -22.4653 
  75   2.0000      -0.820045       -22.3145 
  76   2.0000      -0.813710       -22.1422 
  77   2.0000      -0.806238       -21.9388 
  78   2.0000      -0.791412       -21.5354 
  79   2.0000      -0.784278       -21.3413 
  80   2.0000      -0.779404       -21.2087 
  81   2.0000      -0.775365       -21.0987 
  82   2.0000      -0.769564       -20.9409 
  83   2.0000      -0.763567       -20.7777 
  84   2.0000      -0.760137       -20.6844 
  85   2.0000      -0.754402       -20.5283 
  86   2.0000      -0.745516       -20.2865 
  87   2.0000      -0.729712       -19.8565 
  88   2.0000      -0.728308       -19.8183 
  89   2.0000      -0.725921       -19.7533 
  90   2.0000      -0.718742       -19.5580 
  91   2.0000      -0.686828       -18.6895 
  92   2.0000      -0.679289       -18.4844 
  93   2.0000      -0.675508       -18.3815 
  94   2.0000      -0.669649       -18.2221 
  95   2.0000      -0.650691       -17.7062 
  96   2.0000      -0.647622       -17.6227 
  97   2.0000      -0.642995       -17.4968 
  98   2.0000      -0.640332       -17.4243 
  99   2.0000      -0.629739       -17.1361 
 100   2.0000      -0.628031       -17.0896 
 101   2.0000      -0.622749       -16.9459 
 102   2.0000      -0.616900       -16.7867 
 103   2.0000      -0.614293       -16.7158 
 104   2.0000      -0.611285       -16.6339 
 105   2.0000      -0.597064       -16.2469 
 106   2.0000      -0.592062       -16.1108 
 107   2.0000      -0.585984       -15.9454 
 108   2.0000      -0.583158       -15.8685 
 109   2.0000      -0.581266       -15.8171 
 110   2.0000      -0.574486       -15.6326 
 111   2.0000      -0.555102       -15.1051 
 112   2.0000      -0.553288       -15.0557 
 113   2.0000      -0.551940       -15.0190 
 114   2.0000      -0.536049       -14.5866 
 115   2.0000      -0.530964       -14.4483 
 116   2.0000      -0.529318       -14.4035 
 117   2.0000      -0.525955       -14.3120 
 118   2.0000      -0.523165       -14.2360 
 119   2.0000      -0.517104       -14.0711 
 120   2.0000      -0.515261       -14.0210 
 121   2.0000      -0.511237       -13.9115 
 122   2.0000      -0.505395       -13.7525 
 123   2.0000      -0.502385       -13.6706 
 124   2.0000      -0.495718       -13.4892 
 125   2.0000      -0.491540       -13.3755 
 126   2.0000      -0.481588       -13.1047 
 127   2.0000      -0.477918       -13.0048 
 128   2.0000      -0.474820       -12.9205 
 129   2.0000      -0.472582       -12.8596 
 130   2.0000      -0.470211       -12.7951 
 131   2.0000      -0.465312       -12.6618 
 132   2.0000      -0.463305       -12.6072 
 133   2.0000      -0.461736       -12.5645 
 134   2.0000      -0.458821       -12.4851 
 135   2.0000      -0.456045       -12.4096 
 136   2.0000      -0.450174       -12.2499 
 137   2.0000      -0.447942       -12.1891 
 138   2.0000      -0.446364       -12.1462 
 139   2.0000      -0.445215       -12.1149 
 140   2.0000      -0.443436       -12.0665 
 141   2.0000      -0.443083       -12.0569 
 142   2.0000      -0.441894       -12.0245 
 143   2.0000      -0.440525       -11.9873 
 144   2.0000      -0.435278       -11.8445 
 145   2.0000      -0.434540       -11.8244 
 146   2.0000      -0.434075       -11.8118 
 147   2.0000      -0.429820       -11.6960 
 148   2.0000      -0.428043       -11.6476 
 149   2.0000      -0.426183       -11.5970 
 150   2.0000      -0.425347       -11.5743 
 151   2.0000      -0.422873       -11.5070 
 152   2.0000      -0.418267       -11.3816 
 153   2.0000      -0.417594       -11.3633 
 154   2.0000      -0.410437       -11.1686 
 155   2.0000      -0.407477       -11.0880 
 156   2.0000      -0.402273       -10.9464 
 157   2.0000      -0.401330       -10.9207 
 158   2.0000      -0.399155       -10.8616 
 159   2.0000      -0.396656       -10.7936 
 160   2.0000      -0.390134       -10.6161 
 161   2.0000      -0.388074       -10.5600 
 162   2.0000      -0.382126       -10.3982 
 163   2.0000      -0.380504       -10.3541 
 164   2.0000      -0.373519       -10.1640 
 165   2.0000      -0.373080       -10.1520 
 166   2.0000      -0.372004       -10.1228 
 167   2.0000      -0.371838       -10.1182 
 168   2.0000      -0.366493        -9.9728 
 169   2.0000      -0.363477        -9.8907 
 170   2.0000      -0.357658        -9.7324 
 171   2.0000      -0.354237        -9.6393 
 172   2.0000      -0.351462        -9.5638 
 173   2.0000      -0.347497        -9.4559 
 174   2.0000      -0.346558        -9.4303 
 175   2.0000      -0.343485        -9.3467 
 176   2.0000      -0.342371        -9.3164 
 177   2.0000      -0.337313        -9.1788 
 178   2.0000      -0.335166        -9.1203 
 179   2.0000      -0.321859        -8.7582 
 180   2.0000      -0.315402        -8.5825 
 181   2.0000      -0.313722        -8.5368 
 182   2.0000      -0.302331        -8.2269 
 183   2.0000      -0.299281        -8.1438 
 184   2.0000      -0.295463        -8.0400 
 185   2.0000      -0.287593        -7.8258 
 186   2.0000      -0.283965        -7.7271 
 187   2.0000      -0.278756        -7.5853 
 188   2.0000      -0.274336        -7.4650 
 189   2.0000      -0.269083        -7.3221 
 190   2.0000      -0.266504        -7.2519 
 191   2.0000      -0.266208        -7.2439 
 192   2.0000      -0.260760        -7.0956 
 193   2.0000      -0.255825        -6.9614 
 194   2.0000      -0.247827        -6.7437 
 195   2.0000      -0.233711        -6.3596 
 196   2.0000      -0.227758        -6.1976 
 197   2.0000      -0.224593        -6.1115 
 198   2.0000      -0.219233        -5.9656 
 199   2.0000      -0.208668        -5.6781 
 200   2.0000      -0.194056        -5.2805 
 201   0.0000      -0.078108        -2.1254 
 202   0.0000      -0.061302        -1.6681 
 203   0.0000      -0.050606        -1.3771 
 204   0.0000      -0.043331        -1.1791 
 205   0.0000      -0.032065        -0.8725 
 206   0.0000      -0.019497        -0.5305 
 207   0.0000      -0.017631        -0.4798 
 208   0.0000      -0.009042        -0.2460 
 209   0.0000      -0.005724        -0.1558 
 210   0.0000      -0.001233        -0.0335 
 211   0.0000       0.005248         0.1428 
 212   0.0000       0.006939         0.1888 
 213   0.0000       0.010162         0.2765 
 214   0.0000       0.022367         0.6086 
 215   0.0000       0.035557         0.9675 
 216   0.0000       0.037535         1.0214 
 217   0.0000       0.041591         1.1318 
 218   0.0000       0.055214         1.5024 
 219   0.0000       0.061179         1.6648 
 220   0.0000       0.064690         1.7603 
 221   0.0000       0.066402         1.8069 
 222   0.0000       0.069875         1.9014 
 223   0.0000       0.072296         1.9673 
 224   0.0000       0.074476         2.0266 
 225   0.0000       0.076440         2.0800 
 226   0.0000       0.079499         2.1633 
 227   0.0000       0.087020         2.3679 
 228   0.0000       0.089514         2.4358 
 229   0.0000       0.092209         2.5091 
 230   0.0000       0.097174         2.6442 
 231   0.0000       0.102867         2.7992 
 232   0.0000       0.104736         2.8500 
 233   0.0000       0.108877         2.9627 
 234   0.0000       0.116176         3.1613 
 235   0.0000       0.118840         3.2338 
 236   0.0000       0.121523         3.3068 
 237   0.0000       0.123292         3.3550 
 238   0.0000       0.130556         3.5526 
 239   0.0000       0.131884         3.5887 
 240   0.0000       0.134852         3.6695 
 241   0.0000       0.138991         3.7821 
 242   0.0000       0.145813         3.9678 
 243   0.0000       0.146616         3.9896 
 244   0.0000       0.148058         4.0289 
 245   0.0000       0.149543         4.0693 
 246   0.0000       0.153746         4.1836 
 247   0.0000       0.155036         4.2188 
 248   0.0000       0.159489         4.3399 
 249   0.0000       0.161529         4.3954 
 250   0.0000       0.164737         4.4827 
 251   0.0000       0.169698         4.6177 
 252   0.0000       0.170389         4.6365 
 253   0.0000       0.174345         4.7442 
 254   0.0000       0.178306         4.8520 
 255   0.0000       0.180967         4.9244 
 256   0.0000       0.182975         4.9790 
 257   0.0000       0.184111         5.0099 
 258   0.0000       0.185709         5.0534 
 259   0.0000       0.188253         5.1226 
 260   0.0000       0.197995         5.3877 
 261   0.0000       0.201646         5.4871 
 262   0.0000       0.203006         5.5241 
 263   0.0000       0.204870         5.5748 
 264   0.0000       0.205929         5.6036 
 265   0.0000       0.208895         5.6843 
 266   0.0000       0.212626         5.7859 
 267   0.0000       0.216999         5.9048 
 268   0.0000       0.222942         6.0666 
 269   0.0000       0.226466         6.1625 
 270   0.0000       0.227995         6.2041 
 271   0.0000       0.231715         6.3053 
 272   0.0000       0.236154         6.4261 
 273   0.0000       0.243047         6.6137 
 274   0.0000       0.246407         6.7051 
 275   0.0000       0.251009         6.8303 
 276   0.0000       0.254358         6.9214 
 277   0.0000       0.258176         7.0253 
 278   0.0000       0.261982         7.1289 
 279   0.0000       0.266048         7.2395 
 280   0.0000       0.268306         7.3010 
 281   0.0000       0.269015         7.3203 
 282   0.0000       0.270569         7.3626 
 283   0.0000       0.272794         7.4231 
 284   0.0000       0.278994         7.5918 
 285   0.0000       0.281476         7.6594 
 286   0.0000       0.283269         7.7081 
 287   0.0000       0.285342         7.7646 
 288   0.0000       0.286160         7.7868 
 289   0.0000       0.286812         7.8046 
 290   0.0000       0.292758         7.9663 
 291   0.0000       0.297032         8.0827 
 292   0.0000       0.300053         8.1649 
 293   0.0000       0.300969         8.1898 
 294   0.0000       0.306893         8.3510 
 295   0.0000       0.308162         8.3855 
 296   0.0000       0.310574         8.4512 
 297   0.0000       0.311053         8.4642 
 298   0.0000       0.314073         8.5464 
 299   0.0000       0.314313         8.5529 
 300   0.0000       0.316099         8.6015 
 301   0.0000       0.320301         8.7158 
 302   0.0000       0.323514         8.8033 
 303   0.0000       0.324026         8.8172 
 304   0.0000       0.327666         8.9162 
 305   0.0000       0.329595         8.9687 
 306   0.0000       0.332986         9.0610 
 307   0.0000       0.337100         9.1730 
 308   0.0000       0.341302         9.2873 
 309   0.0000       0.344968         9.3871 
 310   0.0000       0.346325         9.4240 
 311   0.0000       0.351510         9.5651 
 312   0.0000       0.356524         9.7015 
 313   0.0000       0.359009         9.7691 
 314   0.0000       0.362437         9.8624 
 315   0.0000       0.363210         9.8834 
 316   0.0000       0.364618         9.9218 
 317   0.0000       0.370981        10.0949 
 318   0.0000       0.372538        10.1373 
 319   0.0000       0.377249        10.2655 
 320   0.0000       0.378825        10.3084 
 321   0.0000       0.379933        10.3385 
 322   0.0000       0.382625        10.4118 
 323   0.0000       0.389437        10.5971 
 324   0.0000       0.389907        10.6099 
 325   0.0000       0.394316        10.7299 
 326   0.0000       0.395097        10.7511 
 327   0.0000       0.397316        10.8115 
 328   0.0000       0.398878        10.8540 
 329   0.0000       0.402248        10.9457 
 330   0.0000       0.404583        11.0093 
 331   0.0000       0.406192        11.0530 
 332   0.0000       0.412879        11.2350 
 333   0.0000       0.417162        11.3516 
 334   0.0000       0.420690        11.4475 
 335   0.0000       0.426737        11.6121 
 336   0.0000       0.427390        11.6299 
 337   0.0000       0.428829        11.6690 
 338   0.0000       0.434072        11.8117 
 339   0.0000       0.437805        11.9133 
 340   0.0000       0.439074        11.9478 
 341   0.0000       0.443299        12.0628 
 342   0.0000       0.444715        12.1013 
 343   0.0000       0.448387        12.2012 
 344   0.0000       0.451676        12.2907 
 345   0.0000       0.454371        12.3641 
 346   0.0000       0.455927        12.4064 
 347   0.0000       0.458098        12.4655 
 348   0.0000       0.463180        12.6038 
 349   0.0000       0.464572        12.6416 
 350   0.0000       0.466467        12.6932 
 351   0.0000       0.467548        12.7226 
 352   0.0000       0.469161        12.7665 
 353   0.0000       0.470438        12.8013 
 354   0.0000       0.473258        12.8780 
 355   0.0000       0.473513        12.8850 
 356   0.0000       0.477213        12.9856 
 357   0.0000       0.478779        13.0282 
 358   0.0000       0.481600        13.1050 
 359   0.0000       0.482566        13.1313 
 360   0.0000       0.484701        13.1894 
 361   0.0000       0.487224        13.2581 
 362   0.0000       0.489074        13.3084 
 363   0.0000       0.490639        13.3510 
 364   0.0000       0.492518        13.4021 
 365   0.0000       0.494481        13.4555 
 366   0.0000       0.495779        13.4908 
 367   0.0000       0.499337        13.5876 
 368   0.0000       0.502342        13.6694 
 369   0.0000       0.506131        13.7725 
 370   0.0000       0.507936        13.8216 
 371   0.0000       0.512380        13.9426 
 372   0.0000       0.515421        14.0253 
 373   0.0000       0.519552        14.1377 
 374   0.0000       0.522171        14.2090 
 375   0.0000       0.524335        14.2679 
 376   0.0000       0.526765        14.3340 
 377   0.0000       0.528449        14.3798 
 378   0.0000       0.529814        14.4170 
 379   0.0000       0.531629        14.4663 
 380   0.0000       0.533004        14.5038 
 381   0.0000       0.538247        14.6464 
 382   0.0000       0.542165        14.7531 
 383   0.0000       0.544264        14.8102 
 384   0.0000       0.544768        14.8239 
 385   0.0000       0.545399        14.8411 
 386   0.0000       0.548663        14.9299 
 387   0.0000       0.553477        15.0609 
 388   0.0000       0.556216        15.1354 
 389   0.0000       0.557854        15.1800 
 390   0.0000       0.559786        15.2326 
 391   0.0000       0.562500        15.3064 
 392   0.0000       0.565130        15.3780 
 393   0.0000       0.568513        15.4700 
 394   0.0000       0.571697        15.5567 
 395   0.0000       0.574192        15.6246 
 396   0.0000       0.576374        15.6839 
 397   0.0000       0.579786        15.7768 
 398   0.0000       0.581091        15.8123 
 399   0.0000       0.587666        15.9912 
 400   0.0000       0.589065        16.0293 
 401   0.0000       0.590138        16.0585 
 402   0.0000       0.592279        16.1167 
 403   0.0000       0.596159        16.2223 
 404   0.0000       0.598440        16.2844 
 405   0.0000       0.604731        16.4556 
 406   0.0000       0.607114        16.5204 
 407   0.0000       0.607335        16.5264 
 408   0.0000       0.613816        16.7028 
 409   0.0000       0.614480        16.7208 
 410   0.0000       0.620174        16.8758 
 411   0.0000       0.625884        17.0312 
 412   0.0000       0.633292        17.2327 
 413   0.0000       0.637303        17.3419 
 414   0.0000       0.638289        17.3687 
 415   0.0000       0.640843        17.4382 
 416   0.0000       0.647289        17.6136 
 417   0.0000       0.649564        17.6755 
 418   0.0000       0.650777        17.7085 
 419   0.0000       0.653322        17.7778 
 420   0.0000       0.654637        17.8136 
 421   0.0000       0.656970        17.8771 
 422   0.0000       0.659863        17.9558 
 423   0.0000       0.660312        17.9680 
 424   0.0000       0.664116        18.0715 
 425   0.0000       0.668063        18.1789 
 426   0.0000       0.669519        18.2186 
 427   0.0000       0.672329        18.2950 
 428   0.0000       0.673642        18.3307 
 429   0.0000       0.675477        18.3807 
 430   0.0000       0.677421        18.4336 
 431   0.0000       0.679022        18.4771 
 432   0.0000       0.680842        18.5267 
 433   0.0000       0.681810        18.5530 
 434   0.0000       0.683100        18.5881 
 435   0.0000       0.685440        18.6518 
 436   0.0000       0.689135        18.7523 
 437   0.0000       0.690165        18.7803 
 438   0.0000       0.691561        18.8183 
 439   0.0000       0.692817        18.8525 
 440   0.0000       0.695559        18.9271 
 441   0.0000       0.697013        18.9667 
 442   0.0000       0.699997        19.0479 
 443   0.0000       0.701576        19.0909 
 444   0.0000       0.703758        19.1502 
 445   0.0000       0.706566        19.2266 
 446   0.0000       0.708295        19.2737 
 447   0.0000       0.708606        19.2821 
 448   0.0000       0.710891        19.3443 
 449   0.0000       0.712890        19.3987 
 450   0.0000       0.715224        19.4622 
 451   0.0000       0.716780        19.5046 
 452   0.0000       0.717888        19.5347 
 453   0.0000       0.722089        19.6490 
 454   0.0000       0.723047        19.6751 
 455   0.0000       0.724991        19.7280 
 456   0.0000       0.727074        19.7847 
 457   0.0000       0.731071        19.8935 
 458   0.0000       0.735031        20.0012 
 459   0.0000       0.736317        20.0362 
 460   0.0000       0.738714        20.1014 
 461   0.0000       0.739841        20.1321 
 462   0.0000       0.745019        20.2730 
 463   0.0000       0.745850        20.2956 
 464   0.0000       0.749619        20.3982 
 465   0.0000       0.751742        20.4559 
 466   0.0000       0.754098        20.5201 
 467   0.0000       0.755590        20.5606 
 468   0.0000       0.757456        20.6114 
 469   0.0000       0.758819        20.6485 
 470   0.0000       0.760886        20.7048 
 471   0.0000       0.762518        20.7492 
 472   0.0000       0.764434        20.8013 
 473   0.0000       0.766585        20.8598 
 474   0.0000       0.768111        20.9014 
 475   0.0000       0.771886        21.0041 
 476   0.0000       0.775058        21.0904 
 477   0.0000       0.776348        21.1255 
 478   0.0000       0.778837        21.1932 
 479   0.0000       0.779568        21.2131 
 480   0.0000       0.782704        21.2985 
 481   0.0000       0.788952        21.4685 
 482   0.0000       0.790431        21.5087 
 483   0.0000       0.791968        21.5505 
 484   0.0000       0.792806        21.5733 
 485   0.0000       0.796868        21.6839 
 486   0.0000       0.799140        21.7457 
 487   0.0000       0.800930        21.7944 
 488   0.0000       0.803188        21.8559 
 489   0.0000       0.811057        22.0700 
 490   0.0000       0.811210        22.0741 
 491   0.0000       0.813298        22.1310 
 492   0.0000       0.817633        22.2489 
 493   0.0000       0.821686        22.3592 
 494   0.0000       0.822281        22.3754 
 495   0.0000       0.824983        22.4489 
 496   0.0000       0.826356        22.4863 
 497   0.0000       0.828634        22.5483 
 498   0.0000       0.831595        22.6289 
 499   0.0000       0.833910        22.6918 
 500   0.0000       0.836543        22.7635 
 501   0.0000       0.841291        22.8927 
 502   0.0000       0.843065        22.9410 
 503   0.0000       0.843731        22.9591 
 504   0.0000       0.848772        23.0963 
 505   0.0000       0.850403        23.1406 
 506   0.0000       0.857097        23.3228 
 507   0.0000       0.862354        23.4658 
 508   0.0000       0.864527        23.5250 
 509   0.0000       0.873361        23.7654 
 510   0.0000       0.874422        23.7942 
 511   0.0000       0.879539        23.9335 
 512   0.0000       0.884141        24.0587 
 513   0.0000       0.886976        24.1359 
 514   0.0000       0.893100        24.3025 
 515   0.0000       0.899829        24.4856 
 516   0.0000       0.904276        24.6066 
 517   0.0000       0.906495        24.6670 
 518   0.0000       0.910521        24.7765 
 519   0.0000       0.918231        24.9863 
 520   0.0000       0.922782        25.1102 
 521   0.0000       0.922865        25.1124 
 522   0.0000       0.930497        25.3201 
 523   0.0000       0.934335        25.4245 
 524   0.0000       0.934725        25.4352 
 525   0.0000       0.939399        25.5623 
 526   0.0000       0.943497        25.6738 
 527   0.0000       0.949620        25.8405 
 528   0.0000       0.957477        26.0543 
 529   0.0000       0.964474        26.2447 
 530   0.0000       0.967209        26.3191 
 531   0.0000       0.967989        26.3403 
 532   0.0000       0.973515        26.4907 
 533   0.0000       0.977192        26.5908 
 534   0.0000       0.984052        26.7774 
 535   0.0000       0.985920        26.8282 
 536   0.0000       0.993025        27.0216 
 537   0.0000       0.993404        27.0319 
 538   0.0000       1.005191        27.3526 
 539   0.0000       1.005876        27.3713 
 540   0.0000       1.008623        27.4460 
 541   0.0000       1.013137        27.5688 
 542   0.0000       1.018100        27.7039 
 543   0.0000       1.025438        27.9036 
 544   0.0000       1.029781        28.0218 
 545   0.0000       1.037284        28.2259 
 546   0.0000       1.043107        28.3844 
 547   0.0000       1.046073        28.4651 
 548   0.0000       1.049240        28.5513 
 549   0.0000       1.061691        28.8901 
 550   0.0000       1.063907        28.9504 
 551   0.0000       1.069099        29.0917 
 552   0.0000       1.078325        29.3427 
 553   0.0000       1.086514        29.5655 
 554   0.0000       1.088480        29.6190 
 555   0.0000       1.097635        29.8682 
 556   0.0000       1.105952        30.0945 
 557   0.0000       1.112744        30.2793 
 558   0.0000       1.115396        30.3515 
 559   0.0000       1.119884        30.4736 
 560   0.0000       1.125490        30.6261 
 561   0.0000       1.132297        30.8114 
 562   0.0000       1.135940        30.9105 
 563   0.0000       1.137003        30.9394 
 564   0.0000       1.142085        31.0777 
 565   0.0000       1.147611        31.2281 
 566   0.0000       1.153385        31.3852 
 567   0.0000       1.159871        31.5617 
 568   0.0000       1.169138        31.8139 
 569   0.0000       1.175759        31.9940 
 570   0.0000       1.184637        32.2356 
 571   0.0000       1.186959        32.2988 
 572   0.0000       1.194726        32.5101 
 573   0.0000       1.197959        32.5981 
 574   0.0000       1.200812        32.6758 
 575   0.0000       1.206469        32.8297 
 576   0.0000       1.210730        32.9456 
 577   0.0000       1.214515        33.0486 
 578   0.0000       1.216745        33.1093 
 579   0.0000       1.217206        33.1218 
 580   0.0000       1.220321        33.2066 
 581   0.0000       1.223536        33.2941 
 582   0.0000       1.229043        33.4440 
 583   0.0000       1.232241        33.5310 
 584   0.0000       1.236760        33.6540 
 585   0.0000       1.238467        33.7004 
 586   0.0000       1.241914        33.7942 
 587   0.0000       1.245073        33.8802 
 588   0.0000       1.245901        33.9027 
 589   0.0000       1.253191        34.1011 
 590   0.0000       1.256532        34.1920 
 591   0.0000       1.260962        34.3125 
 592   0.0000       1.261644        34.3311 
 593   0.0000       1.264631        34.4123 
 594   0.0000       1.266326        34.4585 
 595   0.0000       1.268146        34.5080 
 596   0.0000       1.269776        34.5524 
 597   0.0000       1.270776        34.5796 
 598   0.0000       1.273358        34.6498 
 599   0.0000       1.275308        34.7029 
 600   0.0000       1.278841        34.7990 
 601   0.0000       1.280104        34.8334 
 602   0.0000       1.282314        34.8935 
 603   0.0000       1.284700        34.9585 
 604   0.0000       1.289658        35.0934 
 605   0.0000       1.291411        35.1411 
 606   0.0000       1.292582        35.1729 
 607   0.0000       1.296551        35.2810 
 608   0.0000       1.298702        35.3395 
 609   0.0000       1.300111        35.3778 
 610   0.0000       1.301289        35.4099 
 611   0.0000       1.302992        35.4562 
 612   0.0000       1.305853        35.5341 
 613   0.0000       1.311207        35.6797 
 614   0.0000       1.313780        35.7498 
 615   0.0000       1.317683        35.8560 
 616   0.0000       1.322407        35.9845 
 617   0.0000       1.324265        36.0351 
 618   0.0000       1.328168        36.1413 
 619   0.0000       1.332057        36.2471 
 620   0.0000       1.332353        36.2552 
 621   0.0000       1.336347        36.3639 
 622   0.0000       1.338998        36.4360 
 623   0.0000       1.345050        36.6007 
 624   0.0000       1.345559        36.6145 
 625   0.0000       1.347558        36.6689 
 626   0.0000       1.354905        36.8688 
 627   0.0000       1.357428        36.9375 
 628   0.0000       1.359988        37.0071 
 629   0.0000       1.370014        37.2800 
 630   0.0000       1.374020        37.3890 
 631   0.0000       1.378939        37.5228 
 632   0.0000       1.388295        37.7774 
 633   0.0000       1.395166        37.9644 
 634   0.0000       1.397377        38.0246 
 635   0.0000       1.403243        38.1842 
 636   0.0000       1.410495        38.3815 
 637   0.0000       1.411960        38.4214 
 638   0.0000       1.414536        38.4915 
 639   0.0000       1.424454        38.7614 
 640   0.0000       1.433244        39.0006 
 641   0.0000       1.439857        39.1805 
 642   0.0000       1.451279        39.4913 
 643   0.0000       1.457515        39.6610 
 644   0.0000       1.462852        39.8062 
 645   0.0000       1.463748        39.8306 
 646   0.0000       1.476677        40.1824 
 647   0.0000       1.478343        40.2278 
 648   0.0000       1.482450        40.3395 
 649   0.0000       1.489070        40.5197 
 650   0.0000       1.492917        40.6243 
 651   0.0000       1.496669        40.7264 
 652   0.0000       1.501290        40.8522 
 653   0.0000       1.517957        41.3057 
 654   0.0000       1.534146        41.7462 
 655   0.0000       1.551867        42.2285 
 656   0.0000       1.557277        42.3757 
 657   0.0000       1.592347        43.3300 
 658   0.0000       1.595553        43.4172 
 659   0.0000       1.616394        43.9843 
 660   0.0000       1.618509        44.0419 
 661   0.0000       1.628332        44.3092 
 662   0.0000       1.637281        44.5527 
 663   0.0000       1.663619        45.2694 
 664   0.0000       1.665692        45.3258 
 665   0.0000       1.669749        45.4362 
 666   0.0000       1.678320        45.6694 
 667   0.0000       1.685090        45.8536 
 668   0.0000       1.686178        45.8832 
 669   0.0000       1.687650        45.9233 
 670   0.0000       1.688677        45.9512 
 671   0.0000       1.693637        46.0862 
 672   0.0000       1.695996        46.1504 
 673   0.0000       1.698325        46.2138 
 674   0.0000       1.701876        46.3104 
 675   0.0000       1.703208        46.3466 
 676   0.0000       1.707176        46.4546 
 677   0.0000       1.710374        46.5416 
 678   0.0000       1.711900        46.5832 
 679   0.0000       1.713008        46.6133 
 680   0.0000       1.715122        46.6708 
 681   0.0000       1.719059        46.7780 
 682   0.0000       1.722340        46.8673 
 683   0.0000       1.722776        46.8791 
 684   0.0000       1.726392        46.9775 
 685   0.0000       1.727218        47.0000 
 686   0.0000       1.729167        47.0530 
 687   0.0000       1.731601        47.1193 
 688   0.0000       1.733924        47.1825 
 689   0.0000       1.735975        47.2383 
 690   0.0000       1.740519        47.3619 
 691   0.0000       1.744522        47.4708 
 692   0.0000       1.750922        47.6450 
 693   0.0000       1.752453        47.6867 
 694   0.0000       1.755417        47.7673 
 695   0.0000       1.756579        47.7989 
 696   0.0000       1.759146        47.8688 
 697   0.0000       1.761257        47.9262 
 698   0.0000       1.763260        47.9807 
 699   0.0000       1.764189        48.0060 
 700   0.0000       1.766820        48.0776 
 701   0.0000       1.769611        48.1536 
 702   0.0000       1.772993        48.2456 
 703   0.0000       1.774977        48.2996 
 704   0.0000       1.775361        48.3100 
 705   0.0000       1.779421        48.4205 
 706   0.0000       1.780611        48.4529 
 707   0.0000       1.781936        48.4889 
 708   0.0000       1.784458        48.5576 
 709   0.0000       1.785373        48.5825 
 710   0.0000       1.786909        48.6243 
 711   0.0000       1.792200        48.7682 
 712   0.0000       1.794489        48.8305 
 713   0.0000       1.795524        48.8587 
 714   0.0000       1.799793        48.9748 
 715   0.0000       1.806100        49.1465 
 716   0.0000       1.807293        49.1789 
 717   0.0000       1.808389        49.2088 
 718   0.0000       1.812720        49.3266 
 719   0.0000       1.816127        49.4193 
 720   0.0000       1.818739        49.4904 
 721   0.0000       1.820645        49.5423 
 722   0.0000       1.823184        49.6114 
 723   0.0000       1.827147        49.7192 
 724   0.0000       1.827960        49.7413 
 725   0.0000       1.831624        49.8410 
 726   0.0000       1.833104        49.8813 
 727   0.0000       1.838076        50.0166 
 728   0.0000       1.839593        50.0579 
 729   0.0000       1.841259        50.1032 
 730   0.0000       1.842963        50.1496 
 731   0.0000       1.845958        50.2311 
 732   0.0000       1.846646        50.2498 
 733   0.0000       1.849798        50.3356 
 734   0.0000       1.854004        50.4500 
 735   0.0000       1.855545        50.4919 
 736   0.0000       1.858272        50.5661 
 737   0.0000       1.860987        50.6400 
 738   0.0000       1.865000        50.7492 
 739   0.0000       1.870053        50.8867 
 740   0.0000       1.871162        50.9169 
 741   0.0000       1.874474        51.0070 
 742   0.0000       1.882608        51.2284 
 743   0.0000       1.883529        51.2534 
 744   0.0000       1.885469        51.3062 
 745   0.0000       1.891893        51.4810 
 746   0.0000       1.900847        51.7247 
 747   0.0000       1.902878        51.7799 
 748   0.0000       1.907741        51.9123 
 749   0.0000       1.910581        51.9895 
 750   0.0000       1.918630        52.2086 
 751   0.0000       1.924250        52.3615 
 752   0.0000       1.925597        52.3982 
 753   0.0000       1.931364        52.5551 
 754   0.0000       1.935657        52.6719 
 755   0.0000       1.939731        52.7828 
 756   0.0000       1.944600        52.9152 
 757   0.0000       1.946739        52.9735 
 758   0.0000       1.951912        53.1142 
 759   0.0000       1.952506        53.1304 
 760   0.0000       1.955641        53.2157 
 761   0.0000       1.956882        53.2495 
 762   0.0000       1.960388        53.3449 
 763   0.0000       1.962894        53.4131 
 764   0.0000       1.964963        53.4693 
 765   0.0000       1.971191        53.6388 
 766   0.0000       1.976423        53.7812 
 767   0.0000       1.978528        53.8385 
 768   0.0000       1.981490        53.9191 
 769   0.0000       1.982823        53.9553 
 770   0.0000       1.983563        53.9755 
 771   0.0000       1.988238        54.1027 
 772   0.0000       1.991896        54.2022 
 773   0.0000       1.998076        54.3704 
 774   0.0000       2.002819        54.4995 
 775   0.0000       2.005675        54.5772 
 776   0.0000       2.008450        54.6527 
 777   0.0000       2.011024        54.7228 
 778   0.0000       2.016610        54.8748 
 779   0.0000       2.023542        55.0634 
 780   0.0000       2.027943        55.1831 
 781   0.0000       2.029285        55.2196 
 782   0.0000       2.034951        55.3738 
 783   0.0000       2.037031        55.4304 
 784   0.0000       2.039499        55.4976 
 785   0.0000       2.041706        55.5576 
 786   0.0000       2.049989        55.7830 
 787   0.0000       2.052921        55.8628 
 788   0.0000       2.056090        55.9490 
 789   0.0000       2.058512        56.0150 
 790   0.0000       2.068194        56.2784 
 791   0.0000       2.070879        56.3515 
 792   0.0000       2.072413        56.3932 
 793   0.0000       2.079265        56.5797 
 794   0.0000       2.083211        56.6871 
 795   0.0000       2.085310        56.7442 
 796   0.0000       2.092513        56.9402 
 797   0.0000       2.093479        56.9664 
 798   0.0000       2.096095        57.0376 
 799   0.0000       2.100581        57.1597 
 800   0.0000       2.106680        57.3257 
 801   0.0000       2.107787        57.3558 
 802   0.0000       2.111832        57.4659 
 803   0.0000       2.117680        57.6250 
 804   0.0000       2.125548        57.8391 
 805   0.0000       2.130519        57.9744 
 806   0.0000       2.136732        58.1434 
 807   0.0000       2.145651        58.3861 
 808   0.0000       2.147165        58.4273 
 809   0.0000       2.152076        58.5610 
 810   0.0000       2.154997        58.6405 
 811   0.0000       2.159288        58.7572 
 812   0.0000       2.162067        58.8328 
 813   0.0000       2.163899        58.8827 
 814   0.0000       2.168451        59.0066 
 815   0.0000       2.170293        59.0567 
 816   0.0000       2.176935        59.2374 
 817   0.0000       2.178594        59.2826 
 818   0.0000       2.180056        59.3223 
 819   0.0000       2.182094        59.3778 
 820   0.0000       2.187457        59.5237 
 821   0.0000       2.192301        59.6555 
 822   0.0000       2.194298        59.7099 
 823   0.0000       2.200177        59.8699 
 824   0.0000       2.206332        60.0373 
 825   0.0000       2.207001        60.0555 
 826   0.0000       2.209943        60.1356 
 827   0.0000       2.211997        60.1915 
 828   0.0000       2.215362        60.2831 
 829   0.0000       2.218001        60.3549 
 830   0.0000       2.223327        60.4998 
 831   0.0000       2.226225        60.5787 
 832   0.0000       2.231748        60.7289 
 833   0.0000       2.233786        60.7844 
 834   0.0000       2.241023        60.9813 
 835   0.0000       2.243931        61.0605 
 836   0.0000       2.245753        61.1100 
 837   0.0000       2.248566        61.1866 
 838   0.0000       2.250086        61.2280 
 839   0.0000       2.254728        61.3543 
 840   0.0000       2.258123        61.4466 
 841   0.0000       2.259587        61.4865 
 842   0.0000       2.263743        61.5996 
 843   0.0000       2.267283        61.6959 
 844   0.0000       2.269088        61.7450 
 845   0.0000       2.275292        61.9138 
 846   0.0000       2.276477        61.9461 
 847   0.0000       2.282035        62.0973 
 848   0.0000       2.285157        62.1823 
 849   0.0000       2.292272        62.3759 
 850   0.0000       2.296151        62.4814 
 851   0.0000       2.308226        62.8100 
 852   0.0000       2.310750        62.8787 
 853   0.0000       2.319207        63.1088 
 854   0.0000       2.320746        63.1507 
 855   0.0000       2.322351        63.1944 
 856   0.0000       2.324583        63.2551 
 857   0.0000       2.327022        63.3215 
 858   0.0000       2.329611        63.3919 
 859   0.0000       2.338944        63.6459 
 860   0.0000       2.339204        63.6530 
 861   0.0000       2.344434        63.7953 
 862   0.0000       2.348758        63.9130 
 863   0.0000       2.350181        63.9517 
 864   0.0000       2.353799        64.0501 
 865   0.0000       2.357055        64.1387 
 866   0.0000       2.362376        64.2835 
 867   0.0000       2.367283        64.4170 
 868   0.0000       2.369422        64.4752 
 869   0.0000       2.373601        64.5890 
 870   0.0000       2.374759        64.6205 
 871   0.0000       2.381168        64.7949 
 872   0.0000       2.387069        64.9554 
 873   0.0000       2.393628        65.1339 
 874   0.0000       2.395668        65.1894 
 875   0.0000       2.405125        65.4468 
 876   0.0000       2.408286        65.5328 
 877   0.0000       2.413777        65.6822 
 878   0.0000       2.422718        65.9255 
 879   0.0000       2.424893        65.9847 
 880   0.0000       2.427960        66.0682 
 881   0.0000       2.428852        66.0924 
 882   0.0000       2.433344        66.2147 
 883   0.0000       2.436458        66.2994 
 884   0.0000       2.438902        66.3659 
 885   0.0000       2.445751        66.5523 
 886   0.0000       2.446995        66.5861 
 887   0.0000       2.450734        66.6879 
 888   0.0000       2.455441        66.8159 
 889   0.0000       2.460244        66.9466 
 890   0.0000       2.462566        67.0098 
 891   0.0000       2.463433        67.0334 
 892   0.0000       2.466677        67.1217 
 893   0.0000       2.475401        67.3591 
 894   0.0000       2.499893        68.0255 
 895   0.0000       2.508029        68.2469 
 896   0.0000       2.520839        68.5955 
 897   0.0000       2.522636        68.6444 
 898   0.0000       2.527901        68.7877 
 899   0.0000       2.550406        69.4001 
 900   0.0000       2.560921        69.6862 
 901   0.0000       2.566269        69.8317 
 902   0.0000       2.574009        70.0423 
 903   0.0000       2.581336        70.2417 
 904   0.0000       2.586967        70.3949 
 905   0.0000       2.587647        70.4134 
 906   0.0000       2.595271        70.6209 
 907   0.0000       2.599505        70.7361 
 908   0.0000       2.603734        70.8512 
 909   0.0000       2.607482        70.9532 
 910   0.0000       2.610738        71.0418 
 911   0.0000       2.617148        71.2162 
 912   0.0000       2.628098        71.5142 
 913   0.0000       2.632964        71.6466 
 914   0.0000       2.639974        71.8374 
 915   0.0000       2.642497        71.9060 
 916   0.0000       2.646535        72.0159 
 917   0.0000       2.651638        72.1547 
 918   0.0000       2.657458        72.3131 
 919   0.0000       2.659468        72.3678 
 920   0.0000       2.664108        72.4941 
 921   0.0000       2.665483        72.5315 
 922   0.0000       2.673048        72.7373 
 923   0.0000       2.676418        72.8290 
 924   0.0000       2.679688        72.9180 
 925   0.0000       2.696954        73.3878 
 926   0.0000       2.701597        73.5142 
 927   0.0000       2.705906        73.6315 
 928   0.0000       2.708835        73.7112 
 929   0.0000       2.711011        73.7704 
 930   0.0000       2.713652        73.8422 
 931   0.0000       2.718341        73.9698 
 932   0.0000       2.728293        74.2406 
 933   0.0000       2.733305        74.3770 
 934   0.0000       2.746341        74.7317 
 935   0.0000       2.751380        74.8689 
 936   0.0000       2.753069        74.9148 
 937   0.0000       2.757786        75.0432 
 938   0.0000       2.760967        75.1297 
 939   0.0000       2.763376        75.1953 
 940   0.0000       2.766457        75.2791 
 941   0.0000       2.768448        75.3333 
 942   0.0000       2.773127        75.4606 
 943   0.0000       2.774896        75.5087 
 944   0.0000       2.777558        75.5812 
 945   0.0000       2.780442        75.6597 
 946   0.0000       2.783890        75.7535 
 947   0.0000       2.788819        75.8876 
 948   0.0000       2.793972        76.0279 
 949   0.0000       2.795541        76.0705 
 950   0.0000       2.797710        76.1296 
 951   0.0000       2.799277        76.1722 
 952   0.0000       2.808163        76.4140 
 953   0.0000       2.817295        76.6625 
 954   0.0000       2.822214        76.7963 
 955   0.0000       2.827367        76.9366 
 956   0.0000       2.829704        77.0002 
 957   0.0000       2.834220        77.1230 
 958   0.0000       2.835357        77.1540 
 959   0.0000       2.841703        77.3267 
 960   0.0000       2.846192        77.4488 
 961   0.0000       2.849198        77.5306 
 962   0.0000       2.859051        77.7987 
 963   0.0000       2.872796        78.1727 
 964   0.0000       2.881202        78.4015 
 965   0.0000       2.883000        78.4504 
 966   0.0000       2.888055        78.5880 
 967   0.0000       2.911691        79.2311 
 968   0.0000       2.913099        79.2694 
 969   0.0000       2.914332        79.3030 
 970   0.0000       2.920029        79.4580 
 971   0.0000       2.926442        79.6325 
 972   0.0000       2.931857        79.7799 
 973   0.0000       2.936414        79.9039 
 974   0.0000       2.944930        80.1356 
 975   0.0000       2.946438        80.1767 
 976   0.0000       2.977659        81.0262 
 977   0.0000       2.986052        81.2546 
 978   0.0000       2.991808        81.4112 
 979   0.0000       3.008159        81.8562 
 980   0.0000       3.011399        81.9443 
 981   0.0000       3.012544        81.9755 
 982   0.0000       3.020038        82.1794 
 983   0.0000       3.048909        82.9650 
 984   0.0000       3.060635        83.2841 
 985   0.0000       3.070062        83.5406 
 986   0.0000       3.075728        83.6948 
 987   0.0000       3.082221        83.8715 
 988   0.0000       3.085327        83.9560 
 989   0.0000       3.089973        84.0824 
 990   0.0000       3.094941        84.2176 
 991   0.0000       3.099759        84.3487 
 992   0.0000       3.117352        84.8275 
 993   0.0000       3.125036        85.0366 
 994   0.0000       3.129232        85.1507 
 995   0.0000       3.134098        85.2831 
 996   0.0000       3.146178        85.6119 
 997   0.0000       3.152906        85.7949 
 998   0.0000       3.156131        85.8827 
 999   0.0000       3.158752        85.9540 
 1000   0.0000       3.162876        86.0662 
 1001   0.0000       3.170971        86.2865 
 1002   0.0000       3.191131        86.8351 
 1003   0.0000       3.200833        87.0991 
 1004   0.0000       3.264834        88.8406 
 1005   0.0000       3.323766        90.4443 
 1006   0.0000       3.326300        90.5132 
 1007   0.0000       3.354431        91.2787 
 1008   0.0000       3.370892        91.7266 
 1009   0.0000       3.373206        91.7896 
 1010   0.0000       3.387000        92.1650 
 1011   0.0000       3.405726        92.6745 
 1012   0.0000       3.464809        94.2822 
 1013   0.0000       3.470983        94.4503 
 1014   0.0000       3.483452        94.7895 
[...]

STATE  1:  E=   0.097737 au      2.660 eV    21450.8 cm**-1 <S**2> =   0.000000
   200a -> 201a  :     0.973917 (c= -0.98687221)

STATE  2:  E=   0.112416 au      3.059 eV    24672.4 cm**-1 <S**2> =   0.000000
   196a -> 201a  :     0.015423 (c=  0.12418984)
   197a -> 201a  :     0.010227 (c= -0.10113053)
   199a -> 201a  :     0.628922 (c=  0.79304583)
   200a -> 202a  :     0.306425 (c=  0.55355678)

STATE  3:  E=   0.115511 au      3.143 eV    25351.8 cm**-1 <S**2> =   0.000000
   196a -> 201a  :     0.020171 (c=  0.14202482)
   197a -> 201a  :     0.015510 (c= -0.12454010)
   199a -> 201a  :     0.272152 (c=  0.52168198)
   200a -> 202a  :     0.658880 (c= -0.81171441)

STATE  4:  E=   0.122861 au      3.343 eV    26964.9 cm**-1 <S**2> =   0.000000
   197a -> 201a  :     0.068179 (c= -0.26111102)
   198a -> 201a  :     0.922400 (c=  0.96041643)

STATE  5:  E=   0.127718 au      3.475 eV    28030.9 cm**-1 <S**2> =   0.000000
   197a -> 201a  :     0.107025 (c= -0.32714633)
   199a -> 202a  :     0.790252 (c= -0.88896093)
   200a -> 203a  :     0.046988 (c=  0.21676831)


-----------------------------
TD-DFT/TDA-EXCITATION SPECTRA
-----------------------------

Center of mass = (  0.0024, -0.0030, -0.0052)
Calculating the Dipole integrals                  ... done
Transforming integrals                            ... done
Calculating the Linear Momentum integrals         ... done
Transforming integrals                            ... done
Calculating angular momentum integrals            ... done
Transforming integrals                            ... done

-----------------------------------------------------------------------------
         ABSORPTION SPECTRUM VIA TRANSITION ELECTRIC DIPOLE MOMENTS
-----------------------------------------------------------------------------
State   Energy    Wavelength  fosc         T2        TX        TY        TZ  
        (cm-1)      (nm)                 (au**2)    (au)      (au)      (au) 
-----------------------------------------------------------------------------
   1   21450.8    466.2   0.123211166   1.89096  -1.33498  -0.29763  -0.14215
   2   24672.4    405.3   0.073820630   0.98501  -0.77226  -0.56618  -0.26088
   3   25351.8    394.4   0.615479957   7.99246  -2.82289   0.10001  -0.11731
   4   26964.9    370.9   0.004376915   0.05344  -0.22354  -0.01239  -0.05755
   5   28030.9    356.7   0.091475147   1.07434  -1.02035   0.07851   0.16448

-----------------------------------------------------------------------------
         ABSORPTION SPECTRUM VIA TRANSITION VELOCITY DIPOLE MOMENTS
-----------------------------------------------------------------------------
State   Energy    Wavelength   fosc        P2         PX        PY        PZ  
        (cm-1)      (nm)                 (au**2)     (au)      (au)      (au) 
-----------------------------------------------------------------------------
   1   21450.8    466.2   0.015475284   0.00227   0.04658   0.00946  -0.00308
   2   24672.4    405.3   0.008292652   0.00140   0.03438   0.00899  -0.01163
   3   25351.8    394.4   0.133164192   0.02307   0.15186  -0.00311  -0.00099
   4   26964.9    370.9   0.000953007   0.00018   0.01182  -0.00040  -0.00599
   5   28030.9    356.7   0.023638890   0.00453   0.06608  -0.01267   0.00137

-------------------------------------------------------------------
                             CD SPECTRUM
-------------------------------------------------------------------
State  Energy     Wavelength     R         MX        MY        MZ   
       (cm-1)       (nm)     (1e40*cgs)   (au)      (au)      (au)  
-------------------------------------------------------------------
   1   21450.8    466.2    -60.64677  -0.03280   0.22479   0.74233
   2   24672.4    405.3    -291.24736  -0.01377   0.46735   1.39448
   3   25351.8    394.4    164.01070  -0.12159  -0.05057  -0.08287
   4   26964.9    370.9     -2.06203  -0.00703  -0.04931   0.11393
   5   28030.9    356.7    -57.90996  -0.07034  -0.33062  -1.02536

-------------------------------------------------------------------
         CD SPECTRUM VIA TRANSITION VELOCITY DIPOLE MOMENTS        
-------------------------------------------------------------------
State  Energy     Wavelength     R         MX        MY        MZ   
       (cm-1)       (nm)     (1e40*cgs)   (au)      (au)      (au)  
-------------------------------------------------------------------
   1   21450.8    466.2     -8.15616  -0.03280   0.22479   0.74233
   2   24672.4    405.3    -52.36164  -0.01377   0.46735   1.39448
   3   25351.8    394.4    -74.38299  -0.12159  -0.05057  -0.08287
   4   26964.9    370.9     -2.86074  -0.00703  -0.04931   0.11393
   5   28030.9    356.7     -6.86125  -0.07034  -0.33062  -1.02536

Total run time:     2454.931 sec

           *** ORCA-CIS/TD-DFT FINISHED WITHOUT ERROR ***

Maximum memory used throughout the entire CIS-calculation: 643.2 MB

-----------------------
CIS/TD-DFT TOTAL ENERGY
-----------------------

    E(SCF)  =  -2387.458573816 Eh
    DE(CIS) =      0.097736919 Eh (Root  1)
    ----------------------------- ---------
    E(tot)  =  -2387.360836898 Eh



-------------------------------------------------------------------------------
                          DFT DISPERSION CORRECTION                            
                                                                               
                              DFTD3 V3.1  Rev 1                                
                          USING Becke-Johnson damping                          
-------------------------------------------------------------------------------
-------------------------   ----------------
Dispersion correction           -0.162290557
-------------------------   ----------------


-------------------------   --------------------
FINAL SINGLE POINT ENERGY     -2387.523127454315
-------------------------   --------------------



           ************************************************************
           *        Program running with 8 parallel MPI-processes     *
           *              working on a common directory               *
           ************************************************************
------------------------------------------------------------------------------
                         ORCA SCF GRADIENT CALCULATION
------------------------------------------------------------------------------


------------------------
TD-DFT GRADIENT XC SETUP
------------------------

Building densities                     ... done
Calculating rho(r) on the grid         ... done
Building xc-kernel on the grid         ... done
Building xc 3rd derivative on the grid      ... done
                *** TD-DFT GRADIENT CALCULATION INITIALIZED ***

-------------------
TD-DFT/TDA GRADIENT
-------------------

Reference wavefunction             ... RHF
State of interest                  ... 1
Basis dimension                    ... 1025
DFT-XC contribution needed         ... YES
RI-approximation                   ... ON
CIS-vectors being read from        ... TDA_SP_COMB.cis

 => Number of Vectors found: 5
 => Orbital Window: 60...200 -> 201...1024

Reading the CIS file                     ... done
Norm of the CI vector                    ... 1.000000000
Making the CIS (pseudo)densities         ... done
Making operators G(D) and Q(T)           ... done
Transforming the Fock operators          ... done
Making the frozen-core relaxed density   ... done
Constructing the G(H) operator           ... done
Transforming the G(H) operator           ... done
Calculating the CIS Lagrangian           ... done
Solving the Z-vector equations           ... done
Finalizing the relaxed density           ... done
Storing the relaxed density              ... done
Constructing the G(Z) operator           ... done
Transforming the G(Z) operator           ... done
Making the W-matrix                      ... done
Finalizing the W-matrix                  ... done
Transforming the W-matrix                ... done
Nuclear repulsion gradient               ... done
One-Electron gradient                    ... done
Dispersion correction                    ... done
Prescreening matrices                    ... done
COSX-gradient                            ... done
Coulomb gradient (RI)                    ... done
Exchange-Correlation gradient            ... done

                 ---------------------------
                 EXCITED STATE GRADIENT DONE
                 ---------------------------

------------------
CARTESIAN GRADIENT
------------------

   1   C   :   -0.006501383   -0.006448057   -0.003359618
   2   C   :    0.006373494    0.008377081    0.004162307
   3   C   :   -0.004800608   -0.002203710   -0.001451568
   4   C   :    0.001780628    0.002873836    0.001408956
   5   C   :   -0.001985626    0.000784682    0.000105730
   6   C   :    0.001435626    0.000734608    0.000578419
   7   C   :   -0.002482297   -0.002546857    0.000132071
   8   C   :   -0.000475858   -0.001919910   -0.001231405
   9   C   :   -0.000189231    0.001399705    0.000156474
  10   C   :    0.000412538   -0.000252076   -0.000260864
  11   C   :    0.000583549   -0.000579113   -0.000957897
  12   C   :   -0.001274150    0.000137396    0.000759057
  13   C   :   -0.000834270   -0.000262496    0.000093393
  14   C   :    0.001512026    0.000831802    0.000196588
  15   C   :   -0.000280931   -0.001164977    0.000282681
  16   C   :    0.000465069   -0.001638752    0.000504008
  17   C   :   -0.000815842    0.000920103   -0.000646094
  18   C   :   -0.000367853   -0.001743709    0.000411515
  19   C   :   -0.001381307    0.000914688   -0.000279908
  20   C   :   -0.000107353    0.001726970    0.000865851
  21   C   :    0.000815020   -0.001152783    0.000671912
  22   C   :    0.001659438    0.001530614    0.000942101
  23   C   :   -0.000598585   -0.001294122   -0.001357171
  24   N   :    0.001523514    0.000976082   -0.000385679
  25   C   :   -0.000155773   -0.000283665    0.000670281
  26   C   :   -0.000422844    0.000329515    0.000258463
  27   C   :    0.000106149   -0.000122675   -0.000414219
  28   C   :   -0.000114557    0.000682849    0.001286346
  29   C   :   -0.001220675    0.000260924   -0.002054960
  30   C   :    0.000563423   -0.000239017    0.000151589
  31   C   :   -0.000157207   -0.000140445    0.000198261
  32   C   :   -0.000412260    0.000727276    0.001925119
  33   C   :   -0.001924751   -0.000262211   -0.001988549
  34   C   :    0.000514835    0.000540348    0.000086941
  35   C   :   -0.000006586   -0.000202689   -0.000947959
  36   C   :   -0.000671153    0.000475411    0.001281484
  37   C   :    0.000012878   -0.000405997   -0.000621374
  38   C   :    0.000322609   -0.001202641   -0.000173624
  39   N   :    0.002153388   -0.000300464   -0.000359737
  40   N   :    0.002327342    0.000638624   -0.000411850
  41   N   :    0.004022639    0.002113510    0.000769621
  42   C   :    0.001595072   -0.000082799   -0.000377250
  43   C   :   -0.001750247   -0.000889101   -0.001834932
  44   C   :    0.001830064   -0.000797070   -0.002192550
  45   C   :   -0.004413715   -0.000547993    0.001459774
  46   N   :    0.005676389   -0.001141280   -0.002331599
  47   C   :   -0.001336785    0.003018840    0.002087900
  48   C   :    0.000162855   -0.000277493   -0.000986103
  49   C   :   -0.000365608    0.000218182    0.000223808
  50   C   :    0.000472443   -0.000457020   -0.000215229
  51   C   :   -0.001349367   -0.000422105    0.002533377
  52   C   :    0.001996300    0.001637845    0.000132853
  53   C   :    0.001541898   -0.001397398    0.000273989
  54   C   :   -0.001504013   -0.001187744   -0.003136265
  55   C   :   -0.001751428    0.000274150    0.002059474
  56   C   :    0.000835090   -0.000084746    0.000273382
  57   C   :   -0.000742766    0.000677277    0.001057405
  58   C   :    0.000771085   -0.001722115   -0.001658645
  59   C   :    0.002141168    0.002173365    0.000719718
  60   C   :   -0.001524244    0.001211612    0.000816487
  61   H   :   -0.000210244   -0.000335850    0.000721345
  62   H   :    0.001760011   -0.002889804   -0.000785616
  63   H   :    0.002234214   -0.002882642   -0.000806891
  64   H   :   -0.001258431   -0.003015598   -0.001323060
  65   H   :   -0.003901924   -0.000085903   -0.000784274
  66   H   :   -0.000862421   -0.003057156    0.000832353
  67   H   :   -0.002938097   -0.000204698    0.001517703
  68   H   :   -0.001731178    0.002978907    0.000781248
  69   H   :   -0.003204960   -0.000083768    0.000293014
  70   H   :   -0.001535627    0.002716738   -0.000537781
  71   H   :    0.001910632    0.002840051   -0.000856776
  72   H   :    0.002201524    0.002741932   -0.000501143
  73   H   :   -0.001522445    0.000587454   -0.000100438
  74   H   :   -0.001895449   -0.002818477   -0.000482524
  75   H   :    0.001800463   -0.004213825   -0.001438177
  76   H   :   -0.002474629   -0.000217579    0.000412165
  77   H   :   -0.000571423    0.001011835    0.002882969
  78   H   :    0.002236956    0.001182328    0.001869610
  79   H   :    0.003196519   -0.000442838   -0.000890154
  80   H   :    0.002619000    0.000579210    0.000058038
  81   H   :    0.002120369   -0.000949327   -0.002147852
  82   H   :   -0.000936812   -0.001076782   -0.002777277
  83   H   :   -0.003038623   -0.000295837   -0.000408847
  84   H   :    0.001733076    0.002347317    0.000657573
  85   H   :   -0.001294812    0.002928521    0.000999990
  86   H   :   -0.002192107    0.002657505    0.001401559
  87   H   :    0.001807762    0.004244807    0.002337088
  88   H   :   -0.003718269   -0.001101117   -0.000280063
  89   H   :   -0.000711440   -0.001146133   -0.003114969
  90   H   :    0.002584064   -0.001010167   -0.001660043
  91   H   :    0.003423599    0.000462041    0.000825944
  92   H   :    0.003493049   -0.000393597   -0.000818165
  93   H   :    0.002411918    0.001083439    0.002250246
  94   H   :   -0.000881676    0.000964811    0.002998249
  95   H   :   -0.002989316   -0.000327664    0.000434674
  96   H   :    0.001727998   -0.002615247   -0.000604113
  97   H   :   -0.001059916   -0.002965770   -0.000878922

Difference to translation invariance:
           :    0.0000186098    0.0000111834   -0.0000210314

Difference to rotation invariance:
           :   -0.0000161082    0.0002322134   -0.0000415937

Norm of the cartesian gradient     ...    0.0312532361
RMS gradient                       ...    0.0018320971
MAX gradient                       ...    0.0083770813

------------------------------------------------------------------------------
                  RELAXED CIS/TDA DENSITY POPULATION ANALYSIS
                                   IROOT 1
------------------------------------------------------------------------------
------------------------------------------------------------------------------
                           ORCA POPULATION ANALYSIS
------------------------------------------------------------------------------
Input electron density              ... TDA_SP_COMB.cisp
BaseName (.gbw .S,...)              ... TDA_SP_COMB

-------
TIMINGS
-------

Total TD-DFT gradient time         ...     3903.871 sec

Fock matrix formation       ....     908.278 sec  ( 23.3%)
  Coulomb formation         ....     823.615 sec  ( 90.7% of F)
  RI-J                      ....      78.159 sec  (  8.6% of F)
  Chain of spheres X        ....     739.035 sec  ( 81.4% of F)
  XC integration            ....      84.662 sec  (  9.3% of F)
Z-vector equation           ....    1677.530 sec  ( 43.0%)
One electron gradient       ....      60.996 sec  (  1.6%)
Prescreening matrices       ....       4.335 sec  (  0.1%)
RI-J Coulomb gradient       ....     150.184 sec  (  3.8%)
COSX gradient               ....     750.134 sec  ( 19.2%)
XC gradient                 ....     323.113 sec  (  8.3%)

Maximum memory used throughout the entire SCFGRAD-calculation: 446.5 MB

                            ***************************************
                            *     ORCA property calculations      *
                            ***************************************

                                    ---------------------
                                    Active property flags
                                    ---------------------
   (+) Dipole Moment


------------------------------------------------------------------------------
                       ORCA ELECTRIC PROPERTIES CALCULATION
------------------------------------------------------------------------------

Dipole Moment Calculation                       ... on
Quadrupole Moment Calculation                   ... off
Polarizability Calculation                      ... off
GBWName                                         ... TDA_SP_COMB.gbw
Electron density                                ... TDA_SP_COMB.scfp
The origin for moment calculation is the CENTER OF MASS  = ( 0.002358, -0.003018 -0.005200)

-------------
DIPOLE MOMENT
-------------
                                X             Y             Z
Electronic contribution:      9.61115       0.11537      -0.52080
Nuclear contribution   :     -7.80661       0.00066       0.50807
                        -----------------------------------------
Total Dipole Moment    :      1.80455       0.11603      -0.01274
                        -----------------------------------------
Magnitude (a.u.)       :      1.80832
Magnitude (Debye)      :      4.59638



--------------------
Rotational spectrum 
--------------------
 
Rotational constants in cm-1:     0.002734     0.000790     0.000724 
Rotational constants in MHz :    81.968389    23.669124    21.694912 

 Dipole components along the rotational axes: 
x,y,z [a.u.] :     1.802498     0.144038    -0.016363 
x,y,z [Debye]:     4.581586     0.366114    -0.041591 

 

                        *** CIS RELAXED DENSITY ***

------------------------------------------------------------------------------
                       ORCA ELECTRIC PROPERTIES CALCULATION
------------------------------------------------------------------------------

Dipole Moment Calculation                       ... on
Quadrupole Moment Calculation                   ... off
Polarizability Calculation                      ... off
GBWName                                         ... TDA_SP_COMB.gbw
Electron density                                ... TDA_SP_COMB.cisp
The origin for moment calculation is the CENTER OF MASS  = ( 0.002358, -0.003018 -0.005200)

-------------
DIPOLE MOMENT
-------------
                                X             Y             Z
Electronic contribution:      2.76245      -3.57217       0.50765
Nuclear contribution   :     -7.80661       0.00066       0.50807
                        -----------------------------------------
Total Dipole Moment    :     -5.04415      -3.57151       1.01571
                        -----------------------------------------
Magnitude (a.u.)       :      6.26345
Magnitude (Debye)      :     15.92043



--------------------
Rotational spectrum 
--------------------
 
Rotational constants in cm-1:     0.002734     0.000790     0.000724 
Rotational constants in MHz :    81.968389    23.669124    21.694912 

 Dipole components along the rotational axes: 
x,y,z [a.u.] :    -4.981778    -3.757406     0.542800 
x,y,z [Debye]:   -12.662673    -9.550566     1.379689 

 

Timings for individual modules:

Sum of individual times         ...    11338.372 sec (= 188.973 min)
GTO integral calculation        ...       27.412 sec (=   0.457 min)   0.2 %
SCF iterations                  ...     4946.571 sec (=  82.443 min)  43.6 %
CIS module                      ...     2457.624 sec (=  40.960 min)  21.7 %
SCF Gradient evaluation         ...     3906.765 sec (=  65.113 min)  34.5 %
                             ****ORCA TERMINATED NORMALLY****
TOTAL RUN TIME: 0 days 3 hours 9 minutes 2 seconds 221 msec
